 Entering Gaussian System, Link 0=/opt/apps/apps/binapps/gaussian/g16c01_em64t_sandybridge/g16/g16
 Initial command:
 /opt/apps/apps/binapps/gaussian/g16c01_em64t_sandybridge/g16/l1.exe "/scratch/mbdxwjk2/temp_gau_2182206/Gau-51257.inp" -scrdir="/scratch/mbdxwjk2/temp_gau_2182206/"
 Default is to use a total of   2 processors:
                                2 via shared-memory
                                1 via Linda
 Entering Link 1 = /opt/apps/apps/binapps/gaussian/g16c01_em64t_sandybridge/g16/l1.exe PID=     51259.
  
 Copyright (c) 1988-2019, Gaussian, Inc.  All Rights Reserved.
  
 This is part of the Gaussian(R) 16 program.  It is based on
 the Gaussian(R) 09 system (copyright 2009, Gaussian, Inc.),
 the Gaussian(R) 03 system (copyright 2003, Gaussian, Inc.),
 the Gaussian(R) 98 system (copyright 1998, Gaussian, Inc.),
 the Gaussian(R) 94 system (copyright 1995, Gaussian, Inc.),
 the Gaussian 92(TM) system (copyright 1992, Gaussian, Inc.),
 the Gaussian 90(TM) system (copyright 1990, Gaussian, Inc.),
 the Gaussian 88(TM) system (copyright 1988, Gaussian, Inc.),
 the Gaussian 86(TM) system (copyright 1986, Carnegie Mellon
 University), and the Gaussian 82(TM) system (copyright 1983,
 Carnegie Mellon University). Gaussian is a federally registered
 trademark of Gaussian, Inc.
  
 This software contains proprietary and confidential information,
 including trade secrets, belonging to Gaussian, Inc.
  
 This software is provided under written license and may be
 used, copied, transmitted, or stored only in accord with that
 written license.
  
 The following legend is applicable only to US Government
 contracts under FAR:
  
                    RESTRICTED RIGHTS LEGEND
  
 Use, reproduction and disclosure by the US Government is
 subject to restrictions as set forth in subparagraphs (a)
 and (c) of the Commercial Computer Software - Restricted
 Rights clause in FAR 52.227-19.
  
 Gaussian, Inc.
 340 Quinnipiac St., Bldg. 40, Wallingford CT 06492
  
  
 ---------------------------------------------------------------
 Warning -- This program may not be used in any manner that
 competes with the business of Gaussian, Inc. or will provide
 assistance to any competitor of Gaussian, Inc.  The licensee
 of this program is prohibited from giving any competitor of
 Gaussian, Inc. access to this program.  By using this program,
 the user acknowledges that Gaussian, Inc. is engaged in the
 business of creating and licensing software in the field of
 computational chemistry and represents and warrants to the
 licensee that it is not a competitor of Gaussian, Inc. and that
 it will not use this program in any manner prohibited above.
 ---------------------------------------------------------------
  

 Cite this work as:
 Gaussian 16, Revision C.01,
 M. J. Frisch, G. W. Trucks, H. B. Schlegel, G. E. Scuseria, 
 M. A. Robb, J. R. Cheeseman, G. Scalmani, V. Barone, 
 G. A. Petersson, H. Nakatsuji, X. Li, M. Caricato, A. V. Marenich, 
 J. Bloino, B. G. Janesko, R. Gomperts, B. Mennucci, H. P. Hratchian, 
 J. V. Ortiz, A. F. Izmaylov, J. L. Sonnenberg, D. Williams-Young, 
 F. Ding, F. Lipparini, F. Egidi, J. Goings, B. Peng, A. Petrone, 
 T. Henderson, D. Ranasinghe, V. G. Zakrzewski, J. Gao, N. Rega, 
 G. Zheng, W. Liang, M. Hada, M. Ehara, K. Toyota, R. Fukuda, 
 J. Hasegawa, M. Ishida, T. Nakajima, Y. Honda, O. Kitao, H. Nakai, 
 T. Vreven, K. Throssell, J. A. Montgomery, Jr., J. E. Peralta, 
 F. Ogliaro, M. J. Bearpark, J. J. Heyd, E. N. Brothers, K. N. Kudin, 
 V. N. Staroverov, T. A. Keith, R. Kobayashi, J. Normand, 
 K. Raghavachari, A. P. Rendell, J. C. Burant, S. S. Iyengar, 
 J. Tomasi, M. Cossi, J. M. Millam, M. Klene, C. Adamo, R. Cammi, 
 J. W. Ochterski, R. L. Martin, K. Morokuma, O. Farkas, 
 J. B. Foresman, and D. J. Fox, Gaussian, Inc., Wallingford CT, 2019.
 
 ******************************************
 Gaussian 16:  ES64L-G16RevC.01  3-Jul-2019
                 5-Apr-2021 
 ******************************************
 %Chk=ethanediol-scan-test.chk
 -----------------------------
 #P HF/6-31G* opt=ModRedundant
 -----------------------------
 1/18=120,19=15,38=1/1,3;
 2/9=110,12=2,17=6,18=5,40=1/2;
 3/5=1,6=6,7=1,11=9,25=1,30=1,71=1/1,2,3;
 4//1;
 5/5=2,38=5/2;
 6/7=2,8=2,9=2,10=2,28=1/1;
 7//1,2,3,16;
 1/18=20,19=15/3(2);
 2/9=110/2;
 99//99;
 2/9=110/2;
 3/5=1,6=6,7=1,11=9,25=1,30=1,71=1/1,2,3;
 4/5=5,16=3,69=1/1;
 5/5=2,38=5/2;
 7//1,2,3,16;
 1/18=20,19=15/3(-5);
 2/9=110/2;
 6/7=2,8=2,9=2,10=2,19=2,28=1/1;
 99/9=1/99;
 Leave Link    1 at Mon Apr  5 19:03:33 2021, MaxMem=           0 cpu:               0.1 elap:               0.1
 (Enter /opt/apps/apps/binapps/gaussian/g16c01_em64t_sandybridge/g16/l101.exe)
 --------------------
 ethanediol scan test
 --------------------
 Symbolic Z-matrix:
 Charge =  0 Multiplicity = 1
 C
 C                    1    B1
 O                    2    B2       1    A2
 H                    2    B3       1    A3       3    D3       0
 H                    2    B4       1    A4       3    D4       0
 H                    3    B5       2    A5       1    D5       0
 O                    1    B6       2    A6       3    D6       0
 H                    1    B7       2    A7       3    D7       0
 H                    1    B8       2    A8       3    D8       0
 H                    7    B9       1    A9       2    D9       0
       Variables:
  B1                    1.52525                  
  B2                    1.42722                  
  A2                  109.86477                  
  B3                    1.09371                  
  A3                  110.44125                  
  D3                  241.51855                  
  B4                    1.09469                  
  A4                  110.83317                  
  D4                  119.73875                  
  B5                    0.97195                  
  A5                  106.84851                  
  D5                  163.03006                  
  B6                    1.42722                  
  A6                  109.86476                  
  D6                  282.94943                  
  B7                    1.09371                  
  A7                  110.44124                  
  D7                  164.46961                  
  B8                    1.09469                  
  A8                  110.83318                  
  D8                   42.68818                  
  B9                    0.97195                  
  A9                  106.8485                   
  D9                  163.03071                  
 
 The following ModRedundant input section has been read:
 D       1       2       3       6 S   2 10.000                                
 D       7       1       2       3 S   2 10.000                                
 D       2       1       7      10 S   2 10.000                                
 
 ITRead=  0  0  0  0  0  0  0  0  0  0
 MicOpt= -1 -1 -1 -1 -1 -1 -1 -1 -1 -1
 NAtoms=     10 NQM=       10 NQMF=       0 NMMI=      0 NMMIF=      0
                NMic=       0 NMicF=      0.
                    Isotopes and Nuclear Properties:
 (Nuclear quadrupole moments (NQMom) in fm**2, nuclear magnetic moments (NMagM)
  in nuclear magnetons)

  Atom         1           2           3           4           5           6           7           8           9          10
 IAtWgt=          12          12          16           1           1           1          16           1           1           1
 AtmWgt=  12.0000000  12.0000000  15.9949146   1.0078250   1.0078250   1.0078250  15.9949146   1.0078250   1.0078250   1.0078250
 NucSpn=           0           0           0           1           1           1           0           1           1           1
 AtZEff=  -0.0000000  -0.0000000  -0.0000000  -0.0000000  -0.0000000  -0.0000000  -0.0000000  -0.0000000  -0.0000000  -0.0000000
 NQMom=    0.0000000   0.0000000   0.0000000   0.0000000   0.0000000   0.0000000   0.0000000   0.0000000   0.0000000   0.0000000
 NMagM=    0.0000000   0.0000000   0.0000000   2.7928460   2.7928460   2.7928460   0.0000000   2.7928460   2.7928460   2.7928460
 AtZNuc=   6.0000000   6.0000000   8.0000000   1.0000000   1.0000000   1.0000000   8.0000000   1.0000000   1.0000000   1.0000000
 Leave Link  101 at Mon Apr  5 19:03:33 2021, MaxMem=  1073741824 cpu:               1.0 elap:               0.5
 (Enter /opt/apps/apps/binapps/gaussian/g16c01_em64t_sandybridge/g16/l103.exe)

 GradGradGradGradGradGradGradGradGradGradGradGradGradGradGradGradGradGrad
 Berny optimization.
 Initialization pass.
                           ----------------------------
                           !    Initial Parameters    !
                           ! (Angstroms and Degrees)  !
 --------------------------                            --------------------------
 ! Name  Definition              Value          Derivative Info.                !
 --------------------------------------------------------------------------------
 ! R1    R(1,2)                  1.5253         estimate D2E/DX2                !
 ! R2    R(1,7)                  1.4272         estimate D2E/DX2                !
 ! R3    R(1,8)                  1.0937         estimate D2E/DX2                !
 ! R4    R(1,9)                  1.0947         estimate D2E/DX2                !
 ! R5    R(2,3)                  1.4272         estimate D2E/DX2                !
 ! R6    R(2,4)                  1.0937         estimate D2E/DX2                !
 ! R7    R(2,5)                  1.0947         estimate D2E/DX2                !
 ! R8    R(3,6)                  0.972          estimate D2E/DX2                !
 ! R9    R(7,10)                 0.972          estimate D2E/DX2                !
 ! A1    A(2,1,7)              109.8648         estimate D2E/DX2                !
 ! A2    A(2,1,8)              110.4412         estimate D2E/DX2                !
 ! A3    A(2,1,9)              110.8332         estimate D2E/DX2                !
 ! A4    A(7,1,8)              107.5514         estimate D2E/DX2                !
 ! A5    A(7,1,9)              108.3716         estimate D2E/DX2                !
 ! A6    A(8,1,9)              109.6967         estimate D2E/DX2                !
 ! A7    A(1,2,3)              109.8648         estimate D2E/DX2                !
 ! A8    A(1,2,4)              110.4412         estimate D2E/DX2                !
 ! A9    A(1,2,5)              110.8332         estimate D2E/DX2                !
 ! A10   A(3,2,4)              107.5527         estimate D2E/DX2                !
 ! A11   A(3,2,5)              108.3716         estimate D2E/DX2                !
 ! A12   A(4,2,5)              109.6954         estimate D2E/DX2                !
 ! A13   A(2,3,6)              106.8485         estimate D2E/DX2                !
 ! A14   A(1,7,10)             106.8485         estimate D2E/DX2                !
 ! D1    D(7,1,2,3)            -77.0506         Scan                            !
 ! D2    D(7,1,2,4)            164.468          estimate D2E/DX2                !
 ! D3    D(7,1,2,5)             42.6882         estimate D2E/DX2                !
 ! D4    D(8,1,2,3)            164.4696         estimate D2E/DX2                !
 ! D5    D(8,1,2,4)             45.9882         estimate D2E/DX2                !
 ! D6    D(8,1,2,5)            -75.7916         estimate D2E/DX2                !
 ! D7    D(9,1,2,3)             42.6882         estimate D2E/DX2                !
 ! D8    D(9,1,2,4)            -75.7933         estimate D2E/DX2                !
 ! D9    D(9,1,2,5)            162.4269         estimate D2E/DX2                !
 ! D10   D(2,1,7,10)           163.0307         Scan                            !
 ! D11   D(8,1,7,10)           -76.7211         estimate D2E/DX2                !
 ! D12   D(9,1,7,10)            41.8026         estimate D2E/DX2                !
 ! D13   D(1,2,3,6)            163.0301         Scan                            !
 ! D14   D(4,2,3,6)            -76.7209         estimate D2E/DX2                !
 ! D15   D(5,2,3,6)             41.8019         estimate D2E/DX2                !
 --------------------------------------------------------------------------------
 Trust Radius=3.00D-01 FncErr=1.00D-07 GrdErr=1.00D-07 EigMax=2.50D+02 EigMin=1.00D-04
 Number of optimizations in scan=  27
 Number of steps in this run=     48 maximum allowed number of steps=    100.
 GradGradGradGradGradGradGradGradGradGradGradGradGradGradGradGradGradGrad

 Leave Link  103 at Mon Apr  5 19:03:34 2021, MaxMem=  1073741824 cpu:               0.0 elap:               0.1
 (Enter /opt/apps/apps/binapps/gaussian/g16c01_em64t_sandybridge/g16/l202.exe)
                          Input orientation:                          
 ---------------------------------------------------------------------
 Center     Atomic      Atomic             Coordinates (Angstroms)
 Number     Number       Type             X           Y           Z
 ---------------------------------------------------------------------
      1          6           0        0.000000    0.000000    0.000000
      2          6           0        0.000000    0.000000    1.525250
      3          8           0        1.342296    0.000000    2.010221
      4          1           0       -0.488720   -0.900805    1.907225
      5          1           0       -0.507514    0.888370    1.914574
      6          1           0        1.304916    0.271506    2.942731
      7          8           0        0.300797    1.308160   -0.484971
      8          1           0       -0.987422   -0.274400   -0.381974
      9          1           0        0.752048   -0.693683   -0.389325
     10          1           0        0.557011    1.210889   -1.417484
 ---------------------------------------------------------------------
                    Distance matrix (angstroms):
                    1          2          3          4          5
     1  C    0.000000
     2  C    1.525250   0.000000
     3  O    2.417178   1.427220   0.000000
     4  H    2.165133   1.093710   2.043203   0.000000
     5  H    2.170799   1.094690   2.054300   1.789289   0.000000
     6  H    3.230509   1.945707   0.971950   2.379856   2.173139
     7  O    1.427220   2.417178   3.003662   3.350442   2.566595
     8  H    1.093710   2.165133   3.350445   2.425184   2.618489
     9  H    1.094690   2.170799   2.566595   2.618500   3.065508
    10  H    1.945706   3.230510   3.719151   4.075106   3.512811
                    6          7          8          9         10
     6  H    0.000000
     7  O    3.719146   0.000000
     8  H    4.075106   2.043186   0.000000
     9  H    3.512812   2.054300   1.789304   0.000000
    10  H    4.522530   0.971950   2.379840   2.173142   0.000000
 Stoichiometry    C2H6O2
 Framework group  C1[X(C2H6O2)]
 Deg. of freedom    24
 Full point group                 C1      NOp   1
 Largest Abelian subgroup         C1      NOp   1
 Largest concise Abelian subgroup C1      NOp   1
                         Standard orientation:                         
 ---------------------------------------------------------------------
 Center     Atomic      Atomic             Coordinates (Angstroms)
 Number     Number       Type             X           Y           Z
 ---------------------------------------------------------------------
      1          6           0       -0.697097    0.517872    0.309281
      2          6           0        0.697097    0.517875   -0.309275
      3          8           0        1.479458   -0.532251    0.258268
      4          1           0        1.208600    1.461291   -0.098250
      5          1           0        0.642918    0.361595   -1.391397
      6          1           0        2.236259   -0.672114   -0.335346
      7          8           0       -1.479457   -0.532249   -0.258271
      8          1           0       -1.208611    1.461278    0.098240
      9          1           0       -0.642918    0.361582    1.391402
     10          1           0       -2.236263   -0.672112    0.335336
 ---------------------------------------------------------------------
 Rotational constants (GHZ):          17.2300629           4.8539455           4.3352978
 Leave Link  202 at Mon Apr  5 19:03:34 2021, MaxMem=  1073741824 cpu:               0.0 elap:               0.0
 (Enter /opt/apps/apps/binapps/gaussian/g16c01_em64t_sandybridge/g16/l301.exe)
 Standard basis: 6-31G(d) (6D, 7F)
 Ernie: Thresh=  0.10000D-02 Tol=  0.10000D-05 Strict=F.
 There are    72 symmetry adapted cartesian basis functions of A   symmetry.
 There are    72 symmetry adapted basis functions of A   symmetry.
    72 basis functions,   136 primitive gaussians,    72 cartesian basis functions
    17 alpha electrons       17 beta electrons
       nuclear repulsion energy       131.1461191843 Hartrees.
 IExCor=    0 DFT=F Ex=HF Corr=None ExCW=0 ScaHFX=  1.000000
 ScaDFX=  1.000000  1.000000  1.000000  1.000000 ScalE2=  1.000000  1.000000
 IRadAn=      5 IRanWt=     -1 IRanGd=            0 ICorTp=0 IEmpDi=  4
 NAtoms=   10 NActive=   10 NUniq=   10 SFac= 1.00D+00 NAtFMM=   60 NAOKFM=F Big=F
 Integral buffers will be    131072 words long.
 Raffenetti 1 integral format.
 Two-electron integral symmetry is turned on.
 Leave Link  301 at Mon Apr  5 19:03:34 2021, MaxMem=  1073741824 cpu:               0.1 elap:               0.1
 (Enter /opt/apps/apps/binapps/gaussian/g16c01_em64t_sandybridge/g16/l302.exe)
 NPDir=0 NMtPBC=     1 NCelOv=     1 NCel=       1 NClECP=     1 NCelD=      1
         NCelK=      1 NCelE2=     1 NClLst=     1 CellRange=     0.0.
 One-electron integrals computed using PRISM.
 One-electron integral symmetry used in STVInt
 NBasis=    72 RedAO= T EigKep=  5.13D-03  NBF=    72
 NBsUse=    72 1.00D-06 EigRej= -1.00D+00 NBFU=    72
 Leave Link  302 at Mon Apr  5 19:03:34 2021, MaxMem=  1073741824 cpu:               0.3 elap:               0.2
 (Enter /opt/apps/apps/binapps/gaussian/g16c01_em64t_sandybridge/g16/l303.exe)
 DipDrv:  MaxL=1.
 Leave Link  303 at Mon Apr  5 19:03:34 2021, MaxMem=  1073741824 cpu:               0.1 elap:               0.1
 (Enter /opt/apps/apps/binapps/gaussian/g16c01_em64t_sandybridge/g16/l401.exe)
 ExpMin= 1.61D-01 ExpMax= 5.48D+03 ExpMxC= 8.25D+02 IAcc=3 IRadAn=         5 AccDes= 0.00D+00
 Harris functional with IExCor=  205 and IRadAn=       5 diagonalized for initial guess.
 HarFok:  IExCor=  205 AccDes= 0.00D+00 IRadAn=         5 IDoV= 1 UseB2=F ITyADJ=14
 ICtDFT=  3500011 ScaDFX=  1.000000  1.000000  1.000000  1.000000
 FoFCou: FMM=F IPFlag=           0 FMFlag=      100000 FMFlg1=           0
         NFxFlg=           0 DoJE=T BraDBF=F KetDBF=T FulRan=T
         wScrn=  0.000000 ICntrl=       500 IOpCl=  0 I1Cent=   200000004 NGrid=           0
         NMat0=    1 NMatS0=      1 NMatT0=    0 NMatD0=    1 NMtDS0=    0 NMtDT0=    0
 Petite list used in FoFCou.
 Harris En= -229.195852720055    
 JPrj=0 DoOrth=F DoCkMO=F.
 Leave Link  401 at Mon Apr  5 19:03:35 2021, MaxMem=  1073741824 cpu:               1.5 elap:               0.8
 (Enter /opt/apps/apps/binapps/gaussian/g16c01_em64t_sandybridge/g16/l502.exe)
 Keep R1 ints in memory in canonical form, NReq=4310918.
 FoFCou: FMM=F IPFlag=           0 FMFlag=           0 FMFlg1=           0
         NFxFlg=           0 DoJE=F BraDBF=F KetDBF=F FulRan=T
         wScrn=  0.000000 ICntrl=       600 IOpCl=  0 I1Cent=           0 NGrid=           0
         NMat0=    1 NMatS0=   2628 NMatT0=    0 NMatD0=    1 NMtDS0=    0 NMtDT0=    0
 Symmetry not used in FoFCou.
 Two-electron integral symmetry not used.
 Closed shell SCF:
 Using DIIS extrapolation, IDIIS=  1040.
 NGot=  1073741824 LenX=  1070275280 LenY=  1070269655
 Requested convergence on RMS density matrix=1.00D-08 within 128 cycles.
 Requested convergence on MAX density matrix=1.00D-06.
 Requested convergence on             energy=1.00D-06.
 No special actions if energy rises.

 Cycle   1  Pass 1  IDiag  1:
 E= -228.735369285765    
 DIIS: error= 6.58D-02 at cycle   1 NSaved=   1.
 NSaved= 1 IEnMin= 1 EnMin= -228.735369285765     IErMin= 1 ErrMin= 6.58D-02
 ErrMax= 6.58D-02  0.00D+00 EMaxC= 1.00D-01 BMatC= 3.03D-01 BMatP= 3.03D-01
 IDIUse=3 WtCom= 3.42D-01 WtEn= 6.58D-01
 Coeff-Com:  0.100D+01
 Coeff-En:   0.100D+01
 Coeff:      0.100D+01
 Gap=     0.642 Goal=   None    Shift=    0.000
 GapD=    0.642 DampG=2.000 DampE=0.500 DampFc=1.0000 IDamp=-1.
 RMSDP=6.67D-03 MaxDP=8.88D-02              OVMax= 9.86D-02

 Cycle   2  Pass 1  IDiag  1:
 E= -228.879456470382     Delta-E=       -0.144087184617 Rises=F Damp=F
 DIIS: error= 2.05D-02 at cycle   2 NSaved=   2.
 NSaved= 2 IEnMin= 2 EnMin= -228.879456470382     IErMin= 2 ErrMin= 2.05D-02
 ErrMax= 2.05D-02  0.00D+00 EMaxC= 1.00D-01 BMatC= 4.97D-02 BMatP= 3.03D-01
 IDIUse=3 WtCom= 7.95D-01 WtEn= 2.05D-01
 Coeff-Com:  0.230D+00 0.770D+00
 Coeff-En:   0.000D+00 0.100D+01
 Coeff:      0.183D+00 0.817D+00
 Gap=     0.683 Goal=   None    Shift=    0.000
 RMSDP=2.89D-03 MaxDP=3.73D-02 DE=-1.44D-01 OVMax= 3.89D-02

 Cycle   3  Pass 1  IDiag  1:
 E= -228.912359471572     Delta-E=       -0.032903001190 Rises=F Damp=F
 DIIS: error= 6.03D-03 at cycle   3 NSaved=   3.
 NSaved= 3 IEnMin= 3 EnMin= -228.912359471572     IErMin= 3 ErrMin= 6.03D-03
 ErrMax= 6.03D-03  0.00D+00 EMaxC= 1.00D-01 BMatC= 3.81D-03 BMatP= 4.97D-02
 IDIUse=3 WtCom= 9.40D-01 WtEn= 6.03D-02
 Coeff-Com: -0.219D-01 0.185D+00 0.837D+00
 Coeff-En:   0.000D+00 0.000D+00 0.100D+01
 Coeff:     -0.206D-01 0.174D+00 0.847D+00
 Gap=     0.659 Goal=   None    Shift=    0.000
 RMSDP=5.67D-04 MaxDP=1.03D-02 DE=-3.29D-02 OVMax= 9.47D-03

 Cycle   4  Pass 1  IDiag  1:
 E= -228.915150236581     Delta-E=       -0.002790765009 Rises=F Damp=F
 DIIS: error= 8.92D-04 at cycle   4 NSaved=   4.
 NSaved= 4 IEnMin= 4 EnMin= -228.915150236581     IErMin= 4 ErrMin= 8.92D-04
 ErrMax= 8.92D-04  0.00D+00 EMaxC= 1.00D-01 BMatC= 9.97D-05 BMatP= 3.81D-03
 IDIUse=3 WtCom= 9.91D-01 WtEn= 8.92D-03
 Coeff-Com: -0.728D-02 0.220D-01 0.192D+00 0.794D+00
 Coeff-En:   0.000D+00 0.000D+00 0.000D+00 0.100D+01
 Coeff:     -0.722D-02 0.218D-01 0.190D+00 0.795D+00
 Gap=     0.659 Goal=   None    Shift=    0.000
 RMSDP=1.30D-04 MaxDP=1.53D-03 DE=-2.79D-03 OVMax= 2.05D-03

 Cycle   5  Pass 1  IDiag  1:
 E= -228.915239850195     Delta-E=       -0.000089613614 Rises=F Damp=F
 DIIS: error= 2.68D-04 at cycle   5 NSaved=   5.
 NSaved= 5 IEnMin= 5 EnMin= -228.915239850195     IErMin= 5 ErrMin= 2.68D-04
 ErrMax= 2.68D-04  0.00D+00 EMaxC= 1.00D-01 BMatC= 6.32D-06 BMatP= 9.97D-05
 IDIUse=3 WtCom= 9.97D-01 WtEn= 2.68D-03
 Coeff-Com:  0.195D-02-0.194D-01-0.814D-01 0.287D-01 0.107D+01
 Coeff-En:   0.000D+00 0.000D+00 0.000D+00 0.000D+00 0.100D+01
 Coeff:      0.194D-02-0.194D-01-0.812D-01 0.286D-01 0.107D+01
 Gap=     0.659 Goal=   None    Shift=    0.000
 RMSDP=5.09D-05 MaxDP=4.26D-04 DE=-8.96D-05 OVMax= 8.50D-04

 Cycle   6  Pass 1  IDiag  1:
 E= -228.915248711594     Delta-E=       -0.000008861399 Rises=F Damp=F
 DIIS: error= 3.64D-05 at cycle   6 NSaved=   6.
 NSaved= 6 IEnMin= 6 EnMin= -228.915248711594     IErMin= 6 ErrMin= 3.64D-05
 ErrMax= 3.64D-05  0.00D+00 EMaxC= 1.00D-01 BMatC= 1.26D-07 BMatP= 6.32D-06
 IDIUse=1 WtCom= 1.00D+00 WtEn= 0.00D+00
 Coeff-Com:  0.224D-03-0.499D-03-0.411D-02-0.312D-01-0.518D-01 0.109D+01
 Coeff:      0.224D-03-0.499D-03-0.411D-02-0.312D-01-0.518D-01 0.109D+01
 Gap=     0.659 Goal=   None    Shift=    0.000
 RMSDP=1.05D-05 MaxDP=8.91D-05 DE=-8.86D-06 OVMax= 1.68D-04

 Cycle   7  Pass 1  IDiag  1:
 E= -228.915248984635     Delta-E=       -0.000000273041 Rises=F Damp=F
 DIIS: error= 9.69D-06 at cycle   7 NSaved=   7.
 NSaved= 7 IEnMin= 7 EnMin= -228.915248984635     IErMin= 7 ErrMin= 9.69D-06
 ErrMax= 9.69D-06  0.00D+00 EMaxC= 1.00D-01 BMatC= 6.68D-09 BMatP= 1.26D-07
 IDIUse=1 WtCom= 1.00D+00 WtEn= 0.00D+00
 Coeff-Com: -0.119D-03 0.860D-03 0.438D-02 0.412D-02-0.302D-01-0.240D+00
 Coeff-Com:  0.126D+01
 Coeff:     -0.119D-03 0.860D-03 0.438D-02 0.412D-02-0.302D-01-0.240D+00
 Coeff:      0.126D+01
 Gap=     0.659 Goal=   None    Shift=    0.000
 RMSDP=2.72D-06 MaxDP=3.03D-05 DE=-2.73D-07 OVMax= 5.04D-05

 Cycle   8  Pass 1  IDiag  1:
 E= -228.915249000504     Delta-E=       -0.000000015869 Rises=F Damp=F
 DIIS: error= 2.35D-06 at cycle   8 NSaved=   8.
 NSaved= 8 IEnMin= 8 EnMin= -228.915249000504     IErMin= 8 ErrMin= 2.35D-06
 ErrMax= 2.35D-06  0.00D+00 EMaxC= 1.00D-01 BMatC= 2.32D-10 BMatP= 6.68D-09
 IDIUse=1 WtCom= 1.00D+00 WtEn= 0.00D+00
 Coeff-Com:  0.119D-04-0.131D-03-0.621D-03 0.152D-03 0.676D-02 0.150D-01
 Coeff-Com: -0.264D+00 0.124D+01
 Coeff:      0.119D-04-0.131D-03-0.621D-03 0.152D-03 0.676D-02 0.150D-01
 Coeff:     -0.264D+00 0.124D+01
 Gap=     0.659 Goal=   None    Shift=    0.000
 RMSDP=5.66D-07 MaxDP=6.45D-06 DE=-1.59D-08 OVMax= 1.12D-05

 Cycle   9  Pass 1  IDiag  1:
 E= -228.915249001168     Delta-E=       -0.000000000664 Rises=F Damp=F
 DIIS: error= 5.08D-07 at cycle   9 NSaved=   9.
 NSaved= 9 IEnMin= 9 EnMin= -228.915249001168     IErMin= 9 ErrMin= 5.08D-07
 ErrMax= 5.08D-07  0.00D+00 EMaxC= 1.00D-01 BMatC= 1.19D-11 BMatP= 2.32D-10
 IDIUse=1 WtCom= 1.00D+00 WtEn= 0.00D+00
 Coeff-Com:  0.252D-05-0.114D-04-0.687D-04-0.293D-03-0.121D-03 0.110D-01
 Coeff-Com: -0.145D-01-0.237D+00 0.124D+01
 Coeff:      0.252D-05-0.114D-04-0.687D-04-0.293D-03-0.121D-03 0.110D-01
 Coeff:     -0.145D-01-0.237D+00 0.124D+01
 Gap=     0.659 Goal=   None    Shift=    0.000
 RMSDP=1.28D-07 MaxDP=1.33D-06 DE=-6.64D-10 OVMax= 2.69D-06

 Cycle  10  Pass 1  IDiag  1:
 E= -228.915249001202     Delta-E=       -0.000000000033 Rises=F Damp=F
 DIIS: error= 9.98D-08 at cycle  10 NSaved=  10.
 NSaved=10 IEnMin=10 EnMin= -228.915249001202     IErMin=10 ErrMin= 9.98D-08
 ErrMax= 9.98D-08  0.00D+00 EMaxC= 1.00D-01 BMatC= 4.75D-13 BMatP= 1.19D-11
 IDIUse=1 WtCom= 1.00D+00 WtEn= 0.00D+00
 Coeff-Com: -0.119D-05 0.894D-05 0.451D-04 0.557D-04-0.292D-03-0.315D-02
 Coeff-Com:  0.145D-01 0.125D-02-0.267D+00 0.126D+01
 Coeff:     -0.119D-05 0.894D-05 0.451D-04 0.557D-04-0.292D-03-0.315D-02
 Coeff:      0.145D-01 0.125D-02-0.267D+00 0.126D+01
 Gap=     0.659 Goal=   None    Shift=    0.000
 RMSDP=2.19D-08 MaxDP=2.64D-07 DE=-3.34D-11 OVMax= 5.05D-07

 Cycle  11  Pass 1  IDiag  1:
 E= -228.915249001202     Delta-E=       -0.000000000001 Rises=F Damp=F
 DIIS: error= 1.56D-08 at cycle  11 NSaved=  11.
 NSaved=11 IEnMin=11 EnMin= -228.915249001202     IErMin=11 ErrMin= 1.56D-08
 ErrMax= 1.56D-08  0.00D+00 EMaxC= 1.00D-01 BMatC= 2.20D-14 BMatP= 4.75D-13
 IDIUse=1 WtCom= 1.00D+00 WtEn= 0.00D+00
 Coeff-Com:  0.156D-06-0.155D-05-0.730D-05 0.379D-05 0.724D-04 0.182D-03
 Coeff-Com: -0.256D-02 0.112D-01 0.233D-02-0.305D+00 0.129D+01
 Coeff:      0.156D-06-0.155D-05-0.730D-05 0.379D-05 0.724D-04 0.182D-03
 Coeff:     -0.256D-02 0.112D-01 0.233D-02-0.305D+00 0.129D+01
 Gap=     0.659 Goal=   None    Shift=    0.000
 RMSDP=5.12D-09 MaxDP=5.96D-08 DE=-7.96D-13 OVMax= 9.39D-08

 SCF Done:  E(RHF) =  -228.915249001     A.U. after   11 cycles
            NFock= 11  Conv=0.51D-08     -V/T= 2.0026
 KE= 2.283242504006D+02 PE=-8.019572632442D+02 EE= 2.135716446581D+02
 Leave Link  502 at Mon Apr  5 19:03:36 2021, MaxMem=  1073741824 cpu:               0.7 elap:               0.5
 (Enter /opt/apps/apps/binapps/gaussian/g16c01_em64t_sandybridge/g16/l601.exe)
 Copying SCF densities to generalized density rwf, IOpCl= 0 IROHF=0.

 **********************************************************************

            Population analysis using the SCF Density.

 **********************************************************************

 Orbital symmetries:
       Occupied  (A) (A) (A) (A) (A) (A) (A) (A) (A) (A) (A) (A)
                 (A) (A) (A) (A) (A)
       Virtual   (A) (A) (A) (A) (A) (A) (A) (A) (A) (A) (A) (A)
                 (A) (A) (A) (A) (A) (A) (A) (A) (A) (A) (A) (A)
                 (A) (A) (A) (A) (A) (A) (A) (A) (A) (A) (A) (A)
                 (A) (A) (A) (A) (A) (A) (A) (A) (A) (A) (A) (A)
                 (A) (A) (A) (A) (A) (A) (A)
 The electronic state is 1-A.
 Alpha  occ. eigenvalues --  -20.55473 -20.55473 -11.27761 -11.27699  -1.35634
 Alpha  occ. eigenvalues --   -1.33808  -0.99408  -0.82884  -0.70092  -0.69282
 Alpha  occ. eigenvalues --   -0.61324  -0.59552  -0.58125  -0.52119  -0.47657
 Alpha  occ. eigenvalues --   -0.44165  -0.44029
 Alpha virt. eigenvalues --    0.21894   0.22750   0.28522   0.30977   0.31833
 Alpha virt. eigenvalues --    0.33141   0.39040   0.41084   0.41281   0.75799
 Alpha virt. eigenvalues --    0.79762   0.80862   0.81878   0.90507   0.93476
 Alpha virt. eigenvalues --    1.05509   1.10785   1.11189   1.12511   1.12925
 Alpha virt. eigenvalues --    1.18560   1.19803   1.25577   1.25579   1.27358
 Alpha virt. eigenvalues --    1.31145   1.47514   1.48471   1.52075   1.69386
 Alpha virt. eigenvalues --    1.72418   1.86370   1.88578   1.99127   1.99935
 Alpha virt. eigenvalues --    2.10665   2.14560   2.23282   2.33558   2.43102
 Alpha virt. eigenvalues --    2.46451   2.47771   2.61798   2.70687   2.70956
 Alpha virt. eigenvalues --    2.73209   2.81746   2.94455   3.00281   3.20486
 Alpha virt. eigenvalues --    3.21949   4.12531   4.18658   4.63494   4.85642
          Condensed to atoms (all electrons):
               1          2          3          4          5          6
     1  C    4.803469   0.353765  -0.049960  -0.047329  -0.033630   0.005565
     2  C    0.353765   4.803469   0.206352   0.394500   0.393638  -0.023235
     3  O   -0.049960   0.206352   8.400238  -0.043126  -0.037328   0.258892
     4  H   -0.047329   0.394500  -0.043126   0.586412  -0.038343  -0.001006
     5  H   -0.033630   0.393638  -0.037328  -0.038343   0.556688  -0.006380
     6  H    0.005565  -0.023235   0.258892  -0.001006  -0.006380   0.329932
     7  O    0.206350  -0.049960   0.004109   0.002561  -0.000564  -0.000199
     8  H    0.394502  -0.047329   0.002561   0.002402  -0.000866  -0.000182
     9  H    0.393637  -0.033630  -0.000564  -0.000866   0.004525  -0.000138
    10  H   -0.023235   0.005565  -0.000199  -0.000182  -0.000138   0.000016
               7          8          9         10
     1  C    0.206350   0.394502   0.393637  -0.023235
     2  C   -0.049960  -0.047329  -0.033630   0.005565
     3  O    0.004109   0.002561  -0.000564  -0.000199
     4  H    0.002561   0.002402  -0.000866  -0.000182
     5  H   -0.000564  -0.000866   0.004525  -0.000138
     6  H   -0.000199  -0.000182  -0.000138   0.000016
     7  O    8.400243  -0.043128  -0.037328   0.258892
     8  H   -0.043128   0.586410  -0.038341  -0.001006
     9  H   -0.037328  -0.038341   0.556685  -0.006380
    10  H    0.258892  -0.001006  -0.006380   0.329933
 Mulliken charges:
               1
     1  C   -0.003134
     2  C   -0.003134
     3  O   -0.740976
     4  H    0.144976
     5  H    0.162397
     6  H    0.436737
     7  O   -0.740977
     8  H    0.144977
     9  H    0.162398
    10  H    0.436736
 Sum of Mulliken charges =  -0.00000
 Mulliken charges with hydrogens summed into heavy atoms:
               1
     1  C    0.304241
     2  C    0.304239
     3  O   -0.304239
     7  O   -0.304241
 Electronic spatial extent (au):  <R**2>=            316.0946
 Charge=             -0.0000 electrons
 Dipole moment (field-independent basis, Debye):
    X=             -0.0000    Y=              1.7692    Z=             -0.0000  Tot=              1.7692
 Quadrupole moment (field-independent basis, Debye-Ang):
   XX=            -18.7916   YY=            -25.5665   ZZ=            -24.7874
   XY=             -0.0000   XZ=             -6.3711   YZ=             -0.0000
 Traceless Quadrupole moment (field-independent basis, Debye-Ang):
   XX=              4.2569   YY=             -2.5180   ZZ=             -1.7389
   XY=             -0.0000   XZ=             -6.3711   YZ=             -0.0000
 Octapole moment (field-independent basis, Debye-Ang**2):
  XXX=             -0.0002  YYY=             -2.8765  ZZZ=              0.0000  XYY=              0.0000
  XXY=             -6.3643  XXZ=             -0.0001  XZZ=              0.0000  YZZ=             -1.4365
  YYZ=             -0.0001  XYZ=              3.7567
 Hexadecapole moment (field-independent basis, Debye-Ang**3):
 XXXX=           -175.8555 YYYY=            -80.3483 ZZZZ=            -47.8794 XXXY=             -0.0000
 XXXZ=            -23.8908 YYYX=             -0.0000 YYYZ=             -0.0001 ZZZX=             -2.2984
 ZZZY=             -0.0000 XXYY=            -47.9844 XXZZ=            -48.8377 YYZZ=            -22.4301
 XXYZ=              0.0000 YYXZ=             -1.5729 ZZXY=             -0.0000
 N-N= 1.311461191843D+02 E-N=-8.019572630218D+02  KE= 2.283242504006D+02
 No NMR shielding tensors so no spin-rotation constants.
 Leave Link  601 at Mon Apr  5 19:03:36 2021, MaxMem=  1073741824 cpu:               0.3 elap:               0.2
 (Enter /opt/apps/apps/binapps/gaussian/g16c01_em64t_sandybridge/g16/l701.exe)
 ... and contract with generalized density number  0.
 Compute integral first derivatives.
 Leave Link  701 at Mon Apr  5 19:03:36 2021, MaxMem=  1073741824 cpu:               0.3 elap:               0.3
 (Enter /opt/apps/apps/binapps/gaussian/g16c01_em64t_sandybridge/g16/l702.exe)
 L702 exits ... SP integral derivatives will be done elsewhere.
 Leave Link  702 at Mon Apr  5 19:03:37 2021, MaxMem=  1073741824 cpu:               0.1 elap:               0.1
 (Enter /opt/apps/apps/binapps/gaussian/g16c01_em64t_sandybridge/g16/l703.exe)
 Integral derivatives from FoFJK, PRISM(SPDF).
 Compute integral first derivatives, UseDBF=F ICtDFT=           0.
 Calling FoFJK, ICntrl=      2127 FMM=F ISym2X=0 I1Cent= 0 IOpClX= 0 NMat=1 NMatS=1 NMatT=0.
 FoFJK:  IHMeth= 1 ICntrl=    2127 DoSepK=F KAlg= 0 I1Cent=           0 FoldK=F
 IRaf=         0 NMat=       1 IRICut=       1 DoRegI=T DoRafI=F ISym2E= 0 IDoP0=0 IntGTp=1.
 FoFCou: FMM=F IPFlag=           0 FMFlag=      100000 FMFlg1=         800
         NFxFlg=           0 DoJE=F BraDBF=F KetDBF=F FulRan=T
         wScrn=  0.000000 ICntrl=      2127 IOpCl=  0 I1Cent=           0 NGrid=           0
         NMat0=    1 NMatS0=      1 NMatT0=    0 NMatD0=    1 NMtDS0=    0 NMtDT0=    0
 Symmetry not used in FoFCou.
 Leave Link  703 at Mon Apr  5 19:03:37 2021, MaxMem=  1073741824 cpu:               0.9 elap:               0.5
 (Enter /opt/apps/apps/binapps/gaussian/g16c01_em64t_sandybridge/g16/l716.exe)
 Dipole        =-1.52462129D-06 6.96057352D-01-1.05875565D-06
 ***** Axes restored to original set *****
 -------------------------------------------------------------------
 Center     Atomic                   Forces (Hartrees/Bohr)
 Number     Number              X              Y              Z
 -------------------------------------------------------------------
      1        6           0.003139185    0.015752257   -0.006850158
      2        6           0.016052633   -0.000468140    0.006850246
      3        8          -0.013974491    0.009224483    0.017662883
      4        1          -0.003448388    0.005237733   -0.005539039
      5        1          -0.002521457   -0.006875550   -0.007873129
      6        1           0.004583427   -0.007987362   -0.025623260
      7        8           0.005860200   -0.015684813   -0.017662762
      8        1           0.004332755   -0.004538161    0.005539386
      9        1          -0.007267078   -0.000917142    0.007872482
     10        1          -0.006756786    0.006256695    0.025623351
 -------------------------------------------------------------------
 Cartesian Forces:  Max     0.025623351 RMS     0.011027912
 Leave Link  716 at Mon Apr  5 19:03:37 2021, MaxMem=  1073741824 cpu:               0.1 elap:               0.1
 (Enter /opt/apps/apps/binapps/gaussian/g16c01_em64t_sandybridge/g16/l103.exe)

 GradGradGradGradGradGradGradGradGradGradGradGradGradGradGradGradGradGrad
 Berny optimization.
 FormGI is forming the generalized inverse of G from B-inverse, IUseBI=4.
 Internal  Forces:  Max     0.026990976 RMS     0.008399043
 Search for a local minimum.
 Step number   1 out of a maximum of   48 on scan point     1 out of    27
 All quantities printed in internal units (Hartrees-Bohrs-Radians)
 RMS Force = .87480D-02 SwitMx=.10000D-02 MixMth= 1
 Mixed Optimization -- RFO/linear search
 Second derivative matrix not updated -- first step.
 ITU=  0
     Eigenvalues ---    0.01842   0.04300   0.05720   0.05721   0.10575
     Eigenvalues ---    0.11469   0.11472   0.11923   0.16000   0.16000
     Eigenvalues ---    0.22069   0.22069   0.29866   0.34276   0.34276
     Eigenvalues ---    0.34387   0.34387   0.41391   0.41391   0.52980
     Eigenvalues ---    0.529801000.000001000.000001000.000001000.00000
     Eigenvalues --- 1000.000001000.000001000.000001000.000001000.00000
     Eigenvalues --- 1000.000001000.000001000.000001000.000001000.00000
     Eigenvalues --- 1000.000001000.000001000.00000
 RFO step:  Lambda=-8.84014732D-03 EMin= 1.84207195D-02
 Linear search not attempted -- first point.
 Iteration  1 RMS(Cart)=  0.06202436 RMS(Int)=  0.00164859
 Iteration  2 RMS(Cart)=  0.00160701 RMS(Int)=  0.00092609
 Iteration  3 RMS(Cart)=  0.00000252 RMS(Int)=  0.00092609
 Iteration  4 RMS(Cart)=  0.00000000 RMS(Int)=  0.00092609
 Iteration  1 RMS(Cart)=  0.00001780 RMS(Int)=  0.00002648
 Iteration  2 RMS(Cart)=  0.00001134 RMS(Int)=  0.00002917
 Iteration  3 RMS(Cart)=  0.00000771 RMS(Int)=  0.00003350
 Iteration  4 RMS(Cart)=  0.00000536 RMS(Int)=  0.00003727
 Iteration  5 RMS(Cart)=  0.00000375 RMS(Int)=  0.00004015
 Iteration  6 RMS(Cart)=  0.00000262 RMS(Int)=  0.00004225
 Iteration  7 RMS(Cart)=  0.00000183 RMS(Int)=  0.00004376
 Iteration  8 RMS(Cart)=  0.00000128 RMS(Int)=  0.00004482
 Iteration  9 RMS(Cart)=  0.00000089 RMS(Int)=  0.00004558
 ITry= 1 IFail=0 DXMaxC= 1.39D-01 DCOld= 1.00D+10 DXMaxT= 3.00D-01 DXLimC= 3.00D+00 Rises=F
 Variable       Old X    -DE/DX   Delta X   Delta X   Delta X     New X
                                 (Linear)    (Quad)   (Total)
    R1        2.88230  -0.01452   0.00000  -0.04723  -0.04723   2.83508
    R2        2.69705  -0.01154   0.00000  -0.02729  -0.02729   2.66977
    R3        2.06681  -0.00471   0.00000  -0.01335  -0.01335   2.05347
    R4        2.06866  -0.00721   0.00000  -0.02051  -0.02051   2.04815
    R5        2.69705  -0.01154   0.00000  -0.02729  -0.02729   2.66976
    R6        2.06681  -0.00471   0.00000  -0.01335  -0.01335   2.05347
    R7        2.06866  -0.00721   0.00000  -0.02051  -0.02051   2.04816
    R8        1.83672  -0.02699   0.00000  -0.05011  -0.05011   1.78661
    R9        1.83672  -0.02699   0.00000  -0.05011  -0.05011   1.78661
    A1        1.91750  -0.00809   0.00000  -0.02883  -0.02841   1.88909
    A2        1.92756  -0.00202   0.00000  -0.02807  -0.02832   1.89924
    A3        1.93440  -0.00400   0.00000  -0.04208  -0.04223   1.89218
    A4        1.87713   0.00715   0.00000   0.05622   0.05565   1.93277
    A5        1.89144   0.00769   0.00000   0.06071   0.05985   1.95129
    A6        1.91457  -0.00023   0.00000  -0.01339  -0.01636   1.89821
    A7        1.91750  -0.00809   0.00000  -0.02883  -0.02841   1.88909
    A8        1.92756  -0.00202   0.00000  -0.02807  -0.02832   1.89925
    A9        1.93440  -0.00400   0.00000  -0.04208  -0.04223   1.89218
   A10        1.87715   0.00715   0.00000   0.05619   0.05562   1.93277
   A11        1.89144   0.00769   0.00000   0.06072   0.05985   1.95129
   A12        1.91455  -0.00023   0.00000  -0.01337  -0.01634   1.89821
   A13        1.86486   0.00658   0.00000   0.03895   0.03895   1.90381
   A14        1.86486   0.00658   0.00000   0.03895   0.03895   1.90381
    D1       -1.34479   0.00065   0.00000   0.00000  -0.00001  -1.34479
    D2        2.87051  -0.00189   0.00000  -0.03407  -0.03368   2.83683
    D3        0.74505   0.00246   0.00000   0.03026   0.02994   0.77499
    D4        2.87054  -0.00189   0.00000  -0.03411  -0.03371   2.83683
    D5        0.80264  -0.00444   0.00000  -0.06818  -0.06738   0.73526
    D6       -1.32281  -0.00008   0.00000  -0.00385  -0.00377  -1.32658
    D7        0.74505   0.00246   0.00000   0.03025   0.02993   0.77498
    D8       -1.32284  -0.00008   0.00000  -0.00382  -0.00374  -1.32658
    D9        2.83488   0.00427   0.00000   0.06051   0.05987   2.89476
   D10        2.84542  -0.00065   0.00000   0.00000  -0.00000   2.84542
   D11       -1.33904  -0.00345   0.00000  -0.01670  -0.01821  -1.35725
   D12        0.72959   0.00436   0.00000   0.03116   0.03295   0.76254
   D13        2.84541  -0.00065   0.00000   0.00000  -0.00000   2.84541
   D14       -1.33903  -0.00345   0.00000  -0.01672  -0.01822  -1.35726
   D15        0.72958   0.00436   0.00000   0.03116   0.03295   0.76253
         Item               Value     Threshold  Converged?
 Maximum Force            0.026991     0.000450     NO 
 RMS     Force            0.008748     0.000300     NO 
 Maximum Displacement     0.138681     0.001800     NO 
 RMS     Displacement     0.061649     0.001200     NO 
 Predicted change in Energy=-4.640675D-03
 Lowest energy point so far.  Saving SCF results.
 GradGradGradGradGradGradGradGradGradGradGradGradGradGradGradGradGradGrad

 Leave Link  103 at Mon Apr  5 19:03:37 2021, MaxMem=  1073741824 cpu:               0.1 elap:               0.1
 (Enter /opt/apps/apps/binapps/gaussian/g16c01_em64t_sandybridge/g16/l202.exe)
                          Input orientation:                          
 ---------------------------------------------------------------------
 Center     Atomic      Atomic             Coordinates (Angstroms)
 Number     Number       Type             X           Y           Z
 ---------------------------------------------------------------------
      1          6           0        0.005060   -0.005105    0.012529
      2          6           0       -0.003846    0.006082    1.512720
      3          8           0        1.335319    0.009398    1.962795
      4          1           0       -0.526596   -0.878336    1.866753
      5          1           0       -0.542453    0.885839    1.845337
      6          1           0        1.356023    0.276951    2.869344
      7          8           0        0.308399    1.299259   -0.437546
      8          1           0       -0.974012   -0.316366   -0.341501
      9          1           0        0.741743   -0.727164   -0.320087
     10          1           0        0.573776    1.259479   -1.344098
 ---------------------------------------------------------------------
                    Distance matrix (angstroms):
                    1          2          3          4          5
     1  C    0.000000
     2  C    1.500259   0.000000
     3  O    2.360792   1.412778   0.000000
     4  H    2.117389   1.086647   2.064952   0.000000
     5  H    2.110151   1.083837   2.075566   1.764376   0.000000
     6  H    3.172704   1.939856   0.945433   2.425723   2.241326
     7  O    1.412780   2.360793   2.912034   3.278557   2.471117
     8  H    1.086647   2.117387   3.278553   2.322149   2.532548
     9  H    1.083837   2.110150   2.471114   2.532549   2.989983
    10  H    1.939858   3.172706   3.616378   4.011314   3.399716
                    6          7          8          9         10
     6  H    0.000000
     7  O    3.616373   0.000000
     8  H    4.011310   2.064957   0.000000
     9  H    3.399714   2.075565   1.764377   0.000000
    10  H    4.396631   0.945433   2.425724   2.241330   0.000000
 Stoichiometry    C2H6O2
 Framework group  C1[X(C2H6O2)]
 Deg. of freedom    24
 Full point group                 C1      NOp   1
 RotChk:  IX=2 Diff= 1.53D-02
 Largest Abelian subgroup         C1      NOp   1
 Largest concise Abelian subgroup C1      NOp   1
                         Standard orientation:                         
 ---------------------------------------------------------------------
 Center     Atomic      Atomic             Coordinates (Angstroms)
 Number     Number       Type             X           Y           Z
 ---------------------------------------------------------------------
      1          6           0       -0.679336    0.517489    0.318113
      2          6           0        0.679337    0.517487   -0.318114
      3          8           0        1.434170   -0.532255    0.251281
      4          1           0        1.153552    1.477319   -0.131982
      5          1           0        0.556605    0.390894   -1.387513
      6          1           0        2.177192   -0.715100   -0.303994
      7          8           0       -1.434171   -0.532256   -0.251279
      8          1           0       -1.153546    1.477323    0.131979
      9          1           0       -0.556603    0.390896    1.387512
     10          1           0       -2.177199   -0.715092    0.303990
 ---------------------------------------------------------------------
 Rotational constants (GHZ):          17.0895611           5.1419371           4.5529514
 Leave Link  202 at Mon Apr  5 19:03:37 2021, MaxMem=  1073741824 cpu:               0.0 elap:               0.0
 (Enter /opt/apps/apps/binapps/gaussian/g16c01_em64t_sandybridge/g16/l301.exe)
 Standard basis: 6-31G(d) (6D, 7F)
 Ernie: Thresh=  0.10000D-02 Tol=  0.10000D-05 Strict=F.
 There are    72 symmetry adapted cartesian basis functions of A   symmetry.
 There are    72 symmetry adapted basis functions of A   symmetry.
    72 basis functions,   136 primitive gaussians,    72 cartesian basis functions
    17 alpha electrons       17 beta electrons
       nuclear repulsion energy       133.3028247112 Hartrees.
 IExCor=    0 DFT=F Ex=HF Corr=None ExCW=0 ScaHFX=  1.000000
 ScaDFX=  1.000000  1.000000  1.000000  1.000000 ScalE2=  1.000000  1.000000
 IRadAn=      5 IRanWt=     -1 IRanGd=            0 ICorTp=0 IEmpDi=  4
 NAtoms=   10 NActive=   10 NUniq=   10 SFac= 1.00D+00 NAtFMM=   60 NAOKFM=F Big=F
 Integral buffers will be    131072 words long.
 Raffenetti 1 integral format.
 Two-electron integral symmetry is turned on.
 Leave Link  301 at Mon Apr  5 19:03:38 2021, MaxMem=  1073741824 cpu:               0.1 elap:               0.1
 (Enter /opt/apps/apps/binapps/gaussian/g16c01_em64t_sandybridge/g16/l302.exe)
 NPDir=0 NMtPBC=     1 NCelOv=     1 NCel=       1 NClECP=     1 NCelD=      1
         NCelK=      1 NCelE2=     1 NClLst=     1 CellRange=     0.0.
 One-electron integrals computed using PRISM.
 One-electron integral symmetry used in STVInt
 NBasis=    72 RedAO= T EigKep=  4.83D-03  NBF=    72
 NBsUse=    72 1.00D-06 EigRej= -1.00D+00 NBFU=    72
 Leave Link  302 at Mon Apr  5 19:03:38 2021, MaxMem=  1073741824 cpu:               0.3 elap:               0.2
 (Enter /opt/apps/apps/binapps/gaussian/g16c01_em64t_sandybridge/g16/l303.exe)
 DipDrv:  MaxL=1.
 Leave Link  303 at Mon Apr  5 19:03:38 2021, MaxMem=  1073741824 cpu:               0.1 elap:               0.0
 (Enter /opt/apps/apps/binapps/gaussian/g16c01_em64t_sandybridge/g16/l401.exe)
 Initial guess from the checkpoint file:  "ethanediol-scan-test.chk"
 B after Tr=    -0.000000   -0.000000    0.000000
         Rot=    0.999996    0.000002   -0.002915    0.000001 Ang=   0.33 deg.
 Guess basis will be translated and rotated to current coordinates.
 JPrj=2 DoOrth=T DoCkMO=T.
 Generating alternative initial guess.
 ExpMin= 1.61D-01 ExpMax= 5.48D+03 ExpMxC= 8.25D+02 IAcc=3 IRadAn=         5 AccDes= 0.00D+00
 Harris functional with IExCor=  205 and IRadAn=       5 diagonalized for initial guess.
 HarFok:  IExCor=  205 AccDes= 0.00D+00 IRadAn=         5 IDoV= 1 UseB2=F ITyADJ=14
 ICtDFT=  3500011 ScaDFX=  1.000000  1.000000  1.000000  1.000000
 FoFCou: FMM=F IPFlag=           0 FMFlag=      100000 FMFlg1=           0
         NFxFlg=           0 DoJE=T BraDBF=F KetDBF=T FulRan=T
         wScrn=  0.000000 ICntrl=       500 IOpCl=  0 I1Cent=   200000004 NGrid=           0
         NMat0=    1 NMatS0=      1 NMatT0=    0 NMatD0=    1 NMtDS0=    0 NMtDT0=    0
 Petite list used in FoFCou.
 Harris En= -229.202579064701    
 Leave Link  401 at Mon Apr  5 19:03:39 2021, MaxMem=  1073741824 cpu:               1.6 elap:               0.8
 (Enter /opt/apps/apps/binapps/gaussian/g16c01_em64t_sandybridge/g16/l502.exe)
 Keep R1 ints in memory in canonical form, NReq=4310992.
 FoFCou: FMM=F IPFlag=           0 FMFlag=           0 FMFlg1=           0
         NFxFlg=           0 DoJE=F BraDBF=F KetDBF=F FulRan=T
         wScrn=  0.000000 ICntrl=       600 IOpCl=  0 I1Cent=           0 NGrid=           0
         NMat0=    1 NMatS0=   2628 NMatT0=    0 NMatD0=    1 NMtDS0=    0 NMtDT0=    0
 Symmetry not used in FoFCou.
 Two-electron integral symmetry not used.
 Closed shell SCF:
 Using DIIS extrapolation, IDIIS=  1040.
 NGot=  1073741824 LenX=  1070275280 LenY=  1070269655
 Requested convergence on RMS density matrix=1.00D-08 within 128 cycles.
 Requested convergence on MAX density matrix=1.00D-06.
 Requested convergence on             energy=1.00D-06.
 No special actions if energy rises.

 Cycle   1  Pass 1  IDiag  1:
 E= -228.916762797511    
 DIIS: error= 3.57D-03 at cycle   1 NSaved=   1.
 NSaved= 1 IEnMin= 1 EnMin= -228.916762797511     IErMin= 1 ErrMin= 3.57D-03
 ErrMax= 3.57D-03  0.00D+00 EMaxC= 1.00D-01 BMatC= 1.90D-03 BMatP= 1.90D-03
 IDIUse=3 WtCom= 9.64D-01 WtEn= 3.57D-02
 Coeff-Com:  0.100D+01
 Coeff-En:   0.100D+01
 Coeff:      0.100D+01
 Gap=     1.984 Goal=   None    Shift=    0.000
 GapD=    1.984 DampG=2.000 DampE=1.000 DampFc=2.0000 IDamp=-1.
 RMSDP=6.12D-04 MaxDP=7.13D-03              OVMax= 8.38D-03

 Cycle   2  Pass 1  IDiag  1:
 E= -228.919005168111     Delta-E=       -0.002242370600 Rises=F Damp=F
 DIIS: error= 1.18D-03 at cycle   2 NSaved=   2.
 NSaved= 2 IEnMin= 2 EnMin= -228.919005168111     IErMin= 2 ErrMin= 1.18D-03
 ErrMax= 1.18D-03  0.00D+00 EMaxC= 1.00D-01 BMatC= 1.62D-04 BMatP= 1.90D-03
 IDIUse=3 WtCom= 9.88D-01 WtEn= 1.18D-02
 Coeff-Com: -0.422D-01 0.104D+01
 Coeff-En:   0.000D+00 0.100D+01
 Coeff:     -0.417D-01 0.104D+01
 Gap=     0.668 Goal=   None    Shift=    0.000
 RMSDP=2.13D-04 MaxDP=2.58D-03 DE=-2.24D-03 OVMax= 4.03D-03

 Cycle   3  Pass 1  IDiag  1:
 E= -228.919214972614     Delta-E=       -0.000209804503 Rises=F Damp=F
 DIIS: error= 6.28D-04 at cycle   3 NSaved=   3.
 NSaved= 3 IEnMin= 3 EnMin= -228.919214972614     IErMin= 3 ErrMin= 6.28D-04
 ErrMax= 6.28D-04  0.00D+00 EMaxC= 1.00D-01 BMatC= 3.20D-05 BMatP= 1.62D-04
 IDIUse=3 WtCom= 9.94D-01 WtEn= 6.28D-03
 Coeff-Com: -0.890D-01 0.233D+00 0.856D+00
 Coeff-En:   0.000D+00 0.000D+00 0.100D+01
 Coeff:     -0.884D-01 0.231D+00 0.857D+00
 Gap=     0.670 Goal=   None    Shift=    0.000
 RMSDP=8.45D-05 MaxDP=1.23D-03 DE=-2.10D-04 OVMax= 1.66D-03

 Cycle   4  Pass 1  IDiag  1:
 E= -228.919253065707     Delta-E=       -0.000038093094 Rises=F Damp=F
 DIIS: error= 1.54D-04 at cycle   4 NSaved=   4.
 NSaved= 4 IEnMin= 4 EnMin= -228.919253065707     IErMin= 4 ErrMin= 1.54D-04
 ErrMax= 1.54D-04  0.00D+00 EMaxC= 1.00D-01 BMatC= 2.27D-06 BMatP= 3.20D-05
 IDIUse=3 WtCom= 9.98D-01 WtEn= 1.54D-03
 Coeff-Com: -0.830D-03-0.872D-01 0.447D-01 0.104D+01
 Coeff-En:   0.000D+00 0.000D+00 0.000D+00 0.100D+01
 Coeff:     -0.829D-03-0.870D-01 0.446D-01 0.104D+01
 Gap=     0.669 Goal=   None    Shift=    0.000
 RMSDP=3.50D-05 MaxDP=3.99D-04 DE=-3.81D-05 OVMax= 7.53D-04

 Cycle   5  Pass 1  IDiag  1:
 E= -228.919257044136     Delta-E=       -0.000003978429 Rises=F Damp=F
 DIIS: error= 4.85D-05 at cycle   5 NSaved=   5.
 NSaved= 5 IEnMin= 5 EnMin= -228.919257044136     IErMin= 5 ErrMin= 4.85D-05
 ErrMax= 4.85D-05  0.00D+00 EMaxC= 1.00D-01 BMatC= 1.42D-07 BMatP= 2.27D-06
 IDIUse=1 WtCom= 1.00D+00 WtEn= 0.00D+00
 Coeff-Com:  0.567D-02-0.137D-01-0.579D-01-0.347D-01 0.110D+01
 Coeff:      0.567D-02-0.137D-01-0.579D-01-0.347D-01 0.110D+01
 Gap=     0.669 Goal=   None    Shift=    0.000
 RMSDP=1.15D-05 MaxDP=1.36D-04 DE=-3.98D-06 OVMax= 2.16D-04

 Cycle   6  Pass 1  IDiag  1:
 E= -228.919257356225     Delta-E=       -0.000000312089 Rises=F Damp=F
 DIIS: error= 1.07D-05 at cycle   6 NSaved=   6.
 NSaved= 6 IEnMin= 6 EnMin= -228.919257356225     IErMin= 6 ErrMin= 1.07D-05
 ErrMax= 1.07D-05  0.00D+00 EMaxC= 1.00D-01 BMatC= 1.41D-08 BMatP= 1.42D-07
 IDIUse=1 WtCom= 1.00D+00 WtEn= 0.00D+00
 Coeff-Com:  0.829D-03 0.494D-02-0.103D-01-0.894D-01 0.162D+00 0.932D+00
 Coeff:      0.829D-03 0.494D-02-0.103D-01-0.894D-01 0.162D+00 0.932D+00
 Gap=     0.669 Goal=   None    Shift=    0.000
 RMSDP=2.87D-06 MaxDP=3.49D-05 DE=-3.12D-07 OVMax= 5.15D-05

 Cycle   7  Pass 1  IDiag  1:
 E= -228.919257381543     Delta-E=       -0.000000025318 Rises=F Damp=F
 DIIS: error= 3.11D-06 at cycle   7 NSaved=   7.
 NSaved= 7 IEnMin= 7 EnMin= -228.919257381543     IErMin= 7 ErrMin= 3.11D-06
 ErrMax= 3.11D-06  0.00D+00 EMaxC= 1.00D-01 BMatC= 9.31D-10 BMatP= 1.41D-08
 IDIUse=1 WtCom= 1.00D+00 WtEn= 0.00D+00
 Coeff-Com: -0.606D-03 0.474D-03 0.636D-02 0.139D-01-0.116D+00-0.132D+00
 Coeff-Com:  0.123D+01
 Coeff:     -0.606D-03 0.474D-03 0.636D-02 0.139D-01-0.116D+00-0.132D+00
 Coeff:      0.123D+01
 Gap=     0.669 Goal=   None    Shift=    0.000
 RMSDP=1.04D-06 MaxDP=1.33D-05 DE=-2.53D-08 OVMax= 1.82D-05

 Cycle   8  Pass 1  IDiag  1:
 E= -228.919257383878     Delta-E=       -0.000000002335 Rises=F Damp=F
 DIIS: error= 8.44D-07 at cycle   8 NSaved=   8.
 NSaved= 8 IEnMin= 8 EnMin= -228.919257383878     IErMin= 8 ErrMin= 8.44D-07
 ErrMax= 8.44D-07  0.00D+00 EMaxC= 1.00D-01 BMatC= 3.63D-11 BMatP= 9.31D-10
 IDIUse=1 WtCom= 1.00D+00 WtEn= 0.00D+00
 Coeff-Com:  0.109D-03-0.281D-03-0.116D-02 0.403D-03 0.212D-01-0.387D-02
 Coeff-Com: -0.295D+00 0.128D+01
 Coeff:      0.109D-03-0.281D-03-0.116D-02 0.403D-03 0.212D-01-0.387D-02
 Coeff:     -0.295D+00 0.128D+01
 Gap=     0.669 Goal=   None    Shift=    0.000
 RMSDP=2.23D-07 MaxDP=2.09D-06 DE=-2.34D-09 OVMax= 4.74D-06

 Cycle   9  Pass 1  IDiag  1:
 E= -228.919257383985     Delta-E=       -0.000000000107 Rises=F Damp=F
 DIIS: error= 2.04D-07 at cycle   9 NSaved=   9.
 NSaved= 9 IEnMin= 9 EnMin= -228.919257383985     IErMin= 9 ErrMin= 2.04D-07
 ErrMax= 2.04D-07  0.00D+00 EMaxC= 1.00D-01 BMatC= 2.30D-12 BMatP= 3.63D-11
 IDIUse=1 WtCom= 1.00D+00 WtEn= 0.00D+00
 Coeff-Com:  0.143D-04 0.206D-04-0.134D-03-0.791D-03 0.231D-02 0.766D-02
 Coeff-Com: -0.558D-02-0.289D+00 0.129D+01
 Coeff:      0.143D-04 0.206D-04-0.134D-03-0.791D-03 0.231D-02 0.766D-02
 Coeff:     -0.558D-02-0.289D+00 0.129D+01
 Gap=     0.669 Goal=   None    Shift=    0.000
 RMSDP=6.18D-08 MaxDP=7.43D-07 DE=-1.07D-10 OVMax= 1.38D-06

 Cycle  10  Pass 1  IDiag  1:
 E= -228.919257383992     Delta-E=       -0.000000000007 Rises=F Damp=F
 DIIS: error= 4.81D-08 at cycle  10 NSaved=  10.
 NSaved=10 IEnMin=10 EnMin= -228.919257383992     IErMin=10 ErrMin= 4.81D-08
 ErrMax= 4.81D-08  0.00D+00 EMaxC= 1.00D-01 BMatC= 1.15D-13 BMatP= 2.30D-12
 IDIUse=1 WtCom= 1.00D+00 WtEn= 0.00D+00
 Coeff-Com: -0.834D-05 0.628D-05 0.880D-04 0.188D-03-0.172D-02-0.193D-02
 Coeff-Com:  0.182D-01-0.104D-01-0.260D+00 0.126D+01
 Coeff:     -0.834D-05 0.628D-05 0.880D-04 0.188D-03-0.172D-02-0.193D-02
 Coeff:      0.182D-01-0.104D-01-0.260D+00 0.126D+01
 Gap=     0.669 Goal=   None    Shift=    0.000
 RMSDP=1.46D-08 MaxDP=1.53D-07 DE=-7.28D-12 OVMax= 3.17D-07

 Cycle  11  Pass 1  IDiag  1:
 E= -228.919257383993     Delta-E=       -0.000000000001 Rises=F Damp=F
 DIIS: error= 8.45D-09 at cycle  11 NSaved=  11.
 NSaved=11 IEnMin=11 EnMin= -228.919257383993     IErMin=11 ErrMin= 8.45D-09
 ErrMax= 8.45D-09  0.00D+00 EMaxC= 1.00D-01 BMatC= 5.82D-15 BMatP= 1.15D-13
 IDIUse=1 WtCom= 1.00D+00 WtEn= 0.00D+00
 Coeff-Com:  0.110D-05-0.175D-05-0.131D-04-0.861D-05 0.273D-03 0.596D-04
 Coeff-Com: -0.361D-02 0.156D-01 0.922D-03-0.313D+00 0.130D+01
 Coeff:      0.110D-05-0.175D-05-0.131D-04-0.861D-05 0.273D-03 0.596D-04
 Coeff:     -0.361D-02 0.156D-01 0.922D-03-0.313D+00 0.130D+01
 Gap=     0.669 Goal=   None    Shift=    0.000
 RMSDP=3.27D-09 MaxDP=3.40D-08 DE=-5.12D-13 OVMax= 6.15D-08

 SCF Done:  E(RHF) =  -228.919257384     A.U. after   11 cycles
            NFock= 11  Conv=0.33D-08     -V/T= 2.0015
 KE= 2.285681941423D+02 PE=-8.064319969665D+02 EE= 2.156417207289D+02
 Leave Link  502 at Mon Apr  5 19:03:39 2021, MaxMem=  1073741824 cpu:               0.6 elap:               0.4
 (Enter /opt/apps/apps/binapps/gaussian/g16c01_em64t_sandybridge/g16/l701.exe)
 ... and contract with generalized density number  0.
 Compute integral first derivatives.
 Leave Link  701 at Mon Apr  5 19:03:39 2021, MaxMem=  1073741824 cpu:               0.5 elap:               0.3
 (Enter /opt/apps/apps/binapps/gaussian/g16c01_em64t_sandybridge/g16/l702.exe)
 L702 exits ... SP integral derivatives will be done elsewhere.
 Leave Link  702 at Mon Apr  5 19:03:39 2021, MaxMem=  1073741824 cpu:               0.1 elap:               0.0
 (Enter /opt/apps/apps/binapps/gaussian/g16c01_em64t_sandybridge/g16/l703.exe)
 Integral derivatives from FoFJK, PRISM(SPDF).
 Compute integral first derivatives, UseDBF=F ICtDFT=           0.
 Calling FoFJK, ICntrl=      2127 FMM=F ISym2X=0 I1Cent= 0 IOpClX= 0 NMat=1 NMatS=1 NMatT=0.
 FoFJK:  IHMeth= 1 ICntrl=    2127 DoSepK=F KAlg= 0 I1Cent=           0 FoldK=F
 IRaf=         0 NMat=       1 IRICut=       1 DoRegI=T DoRafI=F ISym2E= 0 IDoP0=0 IntGTp=1.
 FoFCou: FMM=F IPFlag=           0 FMFlag=      100000 FMFlg1=         800
         NFxFlg=           0 DoJE=F BraDBF=F KetDBF=F FulRan=T
         wScrn=  0.000000 ICntrl=      2127 IOpCl=  0 I1Cent=           0 NGrid=           0
         NMat0=    1 NMatS0=      1 NMatT0=    0 NMatD0=    1 NMtDS0=    0 NMtDT0=    0
 Symmetry not used in FoFCou.
 Leave Link  703 at Mon Apr  5 19:03:40 2021, MaxMem=  1073741824 cpu:               0.9 elap:               0.4
 (Enter /opt/apps/apps/binapps/gaussian/g16c01_em64t_sandybridge/g16/l716.exe)
 Dipole        =-2.15063028D-06 6.11805155D-01-3.99841152D-06
 ***** Axes restored to original set *****
 -------------------------------------------------------------------
 Center     Atomic                   Forces (Hartrees/Bohr)
 Number     Number              X              Y              Z
 -------------------------------------------------------------------
      1        6          -0.000048691    0.008777113   -0.003362956
      2        6           0.008541775   -0.002014714    0.003363421
      3        8          -0.009135219    0.001110593   -0.000687380
      4        1           0.000100918   -0.000707717    0.002253204
      5        1          -0.000062762    0.000723375    0.002029495
      6        1           0.001217475    0.000057090    0.001121349
      7        8          -0.000965746   -0.009153098    0.000687863
      8        1          -0.000667140    0.000257355   -0.002253873
      9        1           0.000690904   -0.000223625   -0.002029741
     10        1           0.000328487    0.001173627   -0.001121382
 -------------------------------------------------------------------
 Cartesian Forces:  Max     0.009153098 RMS     0.003526020
 Leave Link  716 at Mon Apr  5 19:03:40 2021, MaxMem=  1073741824 cpu:               0.1 elap:               0.0
 (Enter /opt/apps/apps/binapps/gaussian/g16c01_em64t_sandybridge/g16/l103.exe)

 GradGradGradGradGradGradGradGradGradGradGradGradGradGradGradGradGradGrad
 Berny optimization.
 Using GEDIIS/GDIIS optimizer.
 FormGI is forming the generalized inverse of G from B-inverse, IUseBI=4.
 Internal  Forces:  Max     0.008069592 RMS     0.002515105
 Search for a local minimum.
 Step number   2 out of a maximum of   48 on scan point     1 out of    27
 All quantities printed in internal units (Hartrees-Bohrs-Radians)
 RMS Force = .26097D-02 SwitMx=.10000D-02 MixMth= 1
 Mixed Optimization -- RFO/linear search
 Update second derivatives using D2CorX and points    1    2
 DE= -4.01D-03 DEPred=-4.64D-03 R= 8.64D-01
 TightC=F SS=  1.41D+00  RLast= 2.21D-01 DXNew= 5.0454D-01 6.6202D-01
 Trust test= 8.64D-01 RLast= 2.21D-01 DXMaxT set to 5.05D-01
 ITU=  1  0
 Use linear search instead of GDIIS.
     Eigenvalues ---    0.01920   0.04424   0.06067   0.06124   0.10294
     Eigenvalues ---    0.10949   0.11745   0.12501   0.15328   0.16000
     Eigenvalues ---    0.22030   0.22988   0.32081   0.34276   0.34298
     Eigenvalues ---    0.34387   0.34932   0.38079   0.41391   0.52980
     Eigenvalues ---    0.547631000.000001000.000001000.000001000.00000
     Eigenvalues --- 1000.000001000.000001000.000001000.000001000.00000
     Eigenvalues --- 1000.000001000.000001000.000001000.000001000.00000
     Eigenvalues --- 1000.000001000.000001000.00000
 RFO step:  Lambda=-6.40065711D-04 EMin= 1.91961322D-02
 Quartic linear search produced a step of -0.09417.
 Iteration  1 RMS(Cart)=  0.01327907 RMS(Int)=  0.00007606
 Iteration  2 RMS(Cart)=  0.00007017 RMS(Int)=  0.00006280
 Iteration  3 RMS(Cart)=  0.00000000 RMS(Int)=  0.00006280
 Iteration  1 RMS(Cart)=  0.00000259 RMS(Int)=  0.00000375
 Iteration  2 RMS(Cart)=  0.00000160 RMS(Int)=  0.00000414
 Iteration  3 RMS(Cart)=  0.00000107 RMS(Int)=  0.00000475
 Iteration  4 RMS(Cart)=  0.00000075 RMS(Int)=  0.00000527
 ITry= 1 IFail=0 DXMaxC= 2.79D-02 DCOld= 1.00D+10 DXMaxT= 5.05D-01 DXLimC= 3.00D+00 Rises=F
 Variable       Old X    -DE/DX   Delta X   Delta X   Delta X     New X
                                 (Linear)    (Quad)   (Total)
    R1        2.83508   0.00807   0.00445   0.01610   0.02055   2.85563
    R2        2.66977  -0.00737   0.00257  -0.02082  -0.01825   2.65152
    R3        2.05347   0.00126   0.00126   0.00098   0.00224   2.05570
    R4        2.04815   0.00124   0.00193  -0.00031   0.00162   2.04977
    R5        2.66976  -0.00736   0.00257  -0.02081  -0.01824   2.65152
    R6        2.05347   0.00126   0.00126   0.00098   0.00224   2.05570
    R7        2.04816   0.00124   0.00193  -0.00031   0.00162   2.04977
    R8        1.78661   0.00112   0.00472  -0.00677  -0.00205   1.78456
    R9        1.78661   0.00112   0.00472  -0.00677  -0.00205   1.78456
    A1        1.88909   0.00275   0.00268   0.00724   0.00986   1.89895
    A2        1.89924   0.00111   0.00267   0.00619   0.00888   1.90812
    A3        1.89218   0.00076   0.00398   0.00171   0.00570   1.89788
    A4        1.93277  -0.00167  -0.00524  -0.00328  -0.00855   1.92422
    A5        1.95129  -0.00221  -0.00564  -0.00106  -0.00667   1.94462
    A6        1.89821  -0.00059   0.00154  -0.01032  -0.00857   1.88964
    A7        1.88909   0.00275   0.00268   0.00724   0.00986   1.89895
    A8        1.89925   0.00111   0.00267   0.00618   0.00888   1.90812
    A9        1.89218   0.00076   0.00398   0.00171   0.00570   1.89788
   A10        1.93277  -0.00167  -0.00524  -0.00328  -0.00855   1.92422
   A11        1.95129  -0.00221  -0.00564  -0.00106  -0.00667   1.94462
   A12        1.89821  -0.00059   0.00154  -0.01032  -0.00857   1.88964
   A13        1.90381   0.00217  -0.00367   0.01919   0.01552   1.91934
   A14        1.90381   0.00217  -0.00367   0.01919   0.01552   1.91933
    D1       -1.34479   0.00086   0.00000   0.00000   0.00001  -1.34478
    D2        2.83683   0.00060   0.00317  -0.00390  -0.00077   2.83605
    D3        0.77499   0.00026  -0.00282   0.00401   0.00124   0.77622
    D4        2.83683   0.00060   0.00317  -0.00390  -0.00077   2.83605
    D5        0.73526   0.00035   0.00635  -0.00780  -0.00156   0.73370
    D6       -1.32658   0.00001   0.00035   0.00011   0.00045  -1.32613
    D7        0.77498   0.00026  -0.00282   0.00401   0.00124   0.77622
    D8       -1.32658   0.00001   0.00035   0.00011   0.00045  -1.32613
    D9        2.89476  -0.00033  -0.00564   0.00803   0.00246   2.89722
   D10        2.84542  -0.00015   0.00000   0.00000   0.00000   2.84543
   D11       -1.35725   0.00192   0.00171   0.01009   0.01187  -1.34537
   D12        0.76254  -0.00152  -0.00310  -0.00613  -0.00934   0.75320
   D13        2.84541  -0.00015   0.00000   0.00000   0.00000   2.84541
   D14       -1.35726   0.00192   0.00172   0.01009   0.01187  -1.34539
   D15        0.76253  -0.00152  -0.00310  -0.00613  -0.00934   0.75319
         Item               Value     Threshold  Converged?
 Maximum Force            0.008070     0.000450     NO 
 RMS     Force            0.002610     0.000300     NO 
 Maximum Displacement     0.027867     0.001800     NO 
 RMS     Displacement     0.013248     0.001200     NO 
 Predicted change in Energy=-3.669051D-04
 Lowest energy point so far.  Saving SCF results.
 GradGradGradGradGradGradGradGradGradGradGradGradGradGradGradGradGradGrad

 Leave Link  103 at Mon Apr  5 19:03:40 2021, MaxMem=  1073741824 cpu:               0.1 elap:               0.0
 (Enter /opt/apps/apps/binapps/gaussian/g16c01_em64t_sandybridge/g16/l202.exe)
                          Input orientation:                          
 ---------------------------------------------------------------------
 Center     Atomic      Atomic             Coordinates (Angstroms)
 Number     Number       Type             X           Y           Z
 ---------------------------------------------------------------------
      1          6           0        0.006409   -0.001122    0.007074
      2          6           0        0.000339    0.006504    1.518176
      3          8           0        1.326763    0.008798    1.975725
      4          1           0       -0.521430   -0.876558    1.880579
      5          1           0       -0.538125    0.883839    1.860082
      6          1           0        1.354825    0.272426    2.882094
      7          8           0        0.305894    1.291054   -0.450474
      8          1           0       -0.971120   -0.311729   -0.355329
      9          1           0        0.740762   -0.722499   -0.334833
     10          1           0        0.569096    1.259323   -1.356846
 ---------------------------------------------------------------------
                    Distance matrix (angstroms):
                    1          2          3          4          5
     1  C    0.000000
     2  C    1.511134   0.000000
     3  O    2.370448   1.403125   0.000000
     4  H    2.134250   1.087831   2.051518   0.000000
     5  H    2.124456   1.084693   2.063220   1.760595   0.000000
     6  H    3.187287   1.940520   0.944348   2.417340   2.236424
     7  O    1.403125   2.370447   2.927934   3.288893   2.493364
     8  H    1.087831   2.134251   3.288894   2.349582   2.554391
     9  H    1.084693   2.124457   2.493366   2.554391   3.005583
    10  H    1.940520   3.187287   3.639218   4.028915   3.422800
                    6          7          8          9         10
     6  H    0.000000
     7  O    3.639213   0.000000
     8  H    4.028916   2.051519   0.000000
     9  H    3.422802   2.063220   1.760595   0.000000
    10  H    4.422663   0.944348   2.417335   2.236426   0.000000
 Stoichiometry    C2H6O2
 Framework group  C1[X(C2H6O2)]
 Deg. of freedom    24
 Full point group                 C1      NOp   1
 RotChk:  IX=2 Diff= 8.93D-03
 Largest Abelian subgroup         C1      NOp   1
 Largest concise Abelian subgroup C1      NOp   1
                         Standard orientation:                         
 ---------------------------------------------------------------------
 Center     Atomic      Atomic             Coordinates (Angstroms)
 Number     Number       Type             X           Y           Z
 ---------------------------------------------------------------------
      1          6           0       -0.687242    0.512081    0.313975
      2          6           0        0.687241    0.512080   -0.313976
      3          8           0        1.442359   -0.527057    0.250603
      4          1           0        1.167721    1.470301   -0.128693
      5          1           0        0.580552    0.386884   -1.386125
      6          1           0        2.191844   -0.713213   -0.292912
      7          8           0       -1.442358   -0.527059   -0.250602
      8          1           0       -1.167722    1.470301    0.128690
      9          1           0       -0.580553    0.386887    1.386124
     10          1           0       -2.191849   -0.713207    0.292910
 ---------------------------------------------------------------------
 Rotational constants (GHZ):          17.3583687           5.0816256           4.5163036
 Leave Link  202 at Mon Apr  5 19:03:40 2021, MaxMem=  1073741824 cpu:               0.0 elap:               0.0
 (Enter /opt/apps/apps/binapps/gaussian/g16c01_em64t_sandybridge/g16/l301.exe)
 Standard basis: 6-31G(d) (6D, 7F)
 Ernie: Thresh=  0.10000D-02 Tol=  0.10000D-05 Strict=F.
 There are    72 symmetry adapted cartesian basis functions of A   symmetry.
 There are    72 symmetry adapted basis functions of A   symmetry.
    72 basis functions,   136 primitive gaussians,    72 cartesian basis functions
    17 alpha electrons       17 beta electrons
       nuclear repulsion energy       133.2437373175 Hartrees.
 IExCor=    0 DFT=F Ex=HF Corr=None ExCW=0 ScaHFX=  1.000000
 ScaDFX=  1.000000  1.000000  1.000000  1.000000 ScalE2=  1.000000  1.000000
 IRadAn=      5 IRanWt=     -1 IRanGd=            0 ICorTp=0 IEmpDi=  4
 NAtoms=   10 NActive=   10 NUniq=   10 SFac= 1.00D+00 NAtFMM=   60 NAOKFM=F Big=F
 Integral buffers will be    131072 words long.
 Raffenetti 1 integral format.
 Two-electron integral symmetry is turned on.
 Leave Link  301 at Mon Apr  5 19:03:40 2021, MaxMem=  1073741824 cpu:               0.1 elap:               0.1
 (Enter /opt/apps/apps/binapps/gaussian/g16c01_em64t_sandybridge/g16/l302.exe)
 NPDir=0 NMtPBC=     1 NCelOv=     1 NCel=       1 NClECP=     1 NCelD=      1
         NCelK=      1 NCelE2=     1 NClLst=     1 CellRange=     0.0.
 One-electron integrals computed using PRISM.
 One-electron integral symmetry used in STVInt
 NBasis=    72 RedAO= T EigKep=  4.92D-03  NBF=    72
 NBsUse=    72 1.00D-06 EigRej= -1.00D+00 NBFU=    72
 Leave Link  302 at Mon Apr  5 19:03:40 2021, MaxMem=  1073741824 cpu:               0.3 elap:               0.2
 (Enter /opt/apps/apps/binapps/gaussian/g16c01_em64t_sandybridge/g16/l303.exe)
 DipDrv:  MaxL=1.
 Leave Link  303 at Mon Apr  5 19:03:40 2021, MaxMem=  1073741824 cpu:               0.1 elap:               0.0
 (Enter /opt/apps/apps/binapps/gaussian/g16c01_em64t_sandybridge/g16/l401.exe)
 Initial guess from the checkpoint file:  "ethanediol-scan-test.chk"
 B after Tr=     0.000000    0.000000   -0.000000
         Rot=    0.999999    0.000000    0.001313   -0.000000 Ang=   0.15 deg.
 Guess basis will be translated and rotated to current coordinates.
 JPrj=2 DoOrth=T DoCkMO=T.
 Generating alternative initial guess.
 ExpMin= 1.61D-01 ExpMax= 5.48D+03 ExpMxC= 8.25D+02 IAcc=3 IRadAn=         5 AccDes= 0.00D+00
 Harris functional with IExCor=  205 and IRadAn=       5 diagonalized for initial guess.
 HarFok:  IExCor=  205 AccDes= 0.00D+00 IRadAn=         5 IDoV= 1 UseB2=F ITyADJ=14
 ICtDFT=  3500011 ScaDFX=  1.000000  1.000000  1.000000  1.000000
 FoFCou: FMM=F IPFlag=           0 FMFlag=      100000 FMFlg1=           0
         NFxFlg=           0 DoJE=T BraDBF=F KetDBF=T FulRan=T
         wScrn=  0.000000 ICntrl=       500 IOpCl=  0 I1Cent=   200000004 NGrid=           0
         NMat0=    1 NMatS0=      1 NMatT0=    0 NMatD0=    1 NMtDS0=    0 NMtDT0=    0
 Petite list used in FoFCou.
 Harris En= -229.202574803351    
 Leave Link  401 at Mon Apr  5 19:03:41 2021, MaxMem=  1073741824 cpu:               1.6 elap:               0.8
 (Enter /opt/apps/apps/binapps/gaussian/g16c01_em64t_sandybridge/g16/l502.exe)
 Keep R1 ints in memory in canonical form, NReq=4311050.
 FoFCou: FMM=F IPFlag=           0 FMFlag=           0 FMFlg1=           0
         NFxFlg=           0 DoJE=F BraDBF=F KetDBF=F FulRan=T
         wScrn=  0.000000 ICntrl=       600 IOpCl=  0 I1Cent=           0 NGrid=           0
         NMat0=    1 NMatS0=   2628 NMatT0=    0 NMatD0=    1 NMtDS0=    0 NMtDT0=    0
 Symmetry not used in FoFCou.
 Two-electron integral symmetry not used.
 Closed shell SCF:
 Using DIIS extrapolation, IDIIS=  1040.
 NGot=  1073741824 LenX=  1070275280 LenY=  1070269655
 Requested convergence on RMS density matrix=1.00D-08 within 128 cycles.
 Requested convergence on MAX density matrix=1.00D-06.
 Requested convergence on             energy=1.00D-06.
 No special actions if energy rises.

 Cycle   1  Pass 1  IDiag  1:
 E= -228.919428065459    
 DIIS: error= 1.26D-03 at cycle   1 NSaved=   1.
 NSaved= 1 IEnMin= 1 EnMin= -228.919428065459     IErMin= 1 ErrMin= 1.26D-03
 ErrMax= 1.26D-03  0.00D+00 EMaxC= 1.00D-01 BMatC= 1.34D-04 BMatP= 1.34D-04
 IDIUse=3 WtCom= 9.87D-01 WtEn= 1.26D-02
 Coeff-Com:  0.100D+01
 Coeff-En:   0.100D+01
 Coeff:      0.100D+01
 Gap=     1.957 Goal=   None    Shift=    0.000
 GapD=    1.957 DampG=2.000 DampE=1.000 DampFc=2.0000 IDamp=-1.
 RMSDP=1.80D-04 MaxDP=1.56D-03              OVMax= 2.69D-03

 Cycle   2  Pass 1  IDiag  1:
 E= -228.919589511170     Delta-E=       -0.000161445710 Rises=F Damp=F
 DIIS: error= 2.97D-04 at cycle   2 NSaved=   2.
 NSaved= 2 IEnMin= 2 EnMin= -228.919589511170     IErMin= 2 ErrMin= 2.97D-04
 ErrMax= 2.97D-04  0.00D+00 EMaxC= 1.00D-01 BMatC= 9.33D-06 BMatP= 1.34D-04
 IDIUse=3 WtCom= 9.97D-01 WtEn= 2.97D-03
 Coeff-Com: -0.112D+00 0.111D+01
 Coeff-En:   0.000D+00 0.100D+01
 Coeff:     -0.112D+00 0.111D+01
 Gap=     0.667 Goal=   None    Shift=    0.000
 RMSDP=5.20D-05 MaxDP=4.76D-04 DE=-1.61D-04 OVMax= 8.24D-04

 Cycle   3  Pass 1  IDiag  1:
 E= -228.919601179179     Delta-E=       -0.000011668009 Rises=F Damp=F
 DIIS: error= 1.50D-04 at cycle   3 NSaved=   3.
 NSaved= 3 IEnMin= 3 EnMin= -228.919601179179     IErMin= 3 ErrMin= 1.50D-04
 ErrMax= 1.50D-04  0.00D+00 EMaxC= 1.00D-01 BMatC= 1.72D-06 BMatP= 9.33D-06
 IDIUse=3 WtCom= 9.98D-01 WtEn= 1.50D-03
 Coeff-Com: -0.822D-01 0.303D+00 0.779D+00
 Coeff-En:   0.000D+00 0.000D+00 0.100D+01
 Coeff:     -0.821D-01 0.302D+00 0.780D+00
 Gap=     0.667 Goal=   None    Shift=    0.000
 RMSDP=1.81D-05 MaxDP=2.58D-04 DE=-1.17D-05 OVMax= 3.71D-04

 Cycle   4  Pass 1  IDiag  1:
 E= -228.919602952878     Delta-E=       -0.000001773699 Rises=F Damp=F
 DIIS: error= 2.91D-05 at cycle   4 NSaved=   4.
 NSaved= 4 IEnMin= 4 EnMin= -228.919602952878     IErMin= 4 ErrMin= 2.91D-05
 ErrMax= 2.91D-05  0.00D+00 EMaxC= 1.00D-01 BMatC= 1.01D-07 BMatP= 1.72D-06
 IDIUse=1 WtCom= 1.00D+00 WtEn= 0.00D+00
 Coeff-Com:  0.100D-01-0.942D-01 0.165D-01 0.107D+01
 Coeff:      0.100D-01-0.942D-01 0.165D-01 0.107D+01
 Gap=     0.667 Goal=   None    Shift=    0.000
 RMSDP=8.29D-06 MaxDP=8.82D-05 DE=-1.77D-06 OVMax= 1.21D-04

 Cycle   5  Pass 1  IDiag  1:
 E= -228.919603140648     Delta-E=       -0.000000187770 Rises=F Damp=F
 DIIS: error= 9.87D-06 at cycle   5 NSaved=   5.
 NSaved= 5 IEnMin= 5 EnMin= -228.919603140648     IErMin= 5 ErrMin= 9.87D-06
 ErrMax= 9.87D-06  0.00D+00 EMaxC= 1.00D-01 BMatC= 7.39D-09 BMatP= 1.01D-07
 IDIUse=1 WtCom= 1.00D+00 WtEn= 0.00D+00
 Coeff-Com:  0.501D-02-0.134D-01-0.545D-01-0.161D+00 0.122D+01
 Coeff:      0.501D-02-0.134D-01-0.545D-01-0.161D+00 0.122D+01
 Gap=     0.667 Goal=   None    Shift=    0.000
 RMSDP=3.42D-06 MaxDP=3.94D-05 DE=-1.88D-07 OVMax= 5.43D-05

 Cycle   6  Pass 1  IDiag  1:
 E= -228.919603161981     Delta-E=       -0.000000021333 Rises=F Damp=F
 DIIS: error= 3.22D-06 at cycle   6 NSaved=   6.
 NSaved= 6 IEnMin= 6 EnMin= -228.919603161981     IErMin= 6 ErrMin= 3.22D-06
 ErrMax= 3.22D-06  0.00D+00 EMaxC= 1.00D-01 BMatC= 6.71D-10 BMatP= 7.39D-09
 IDIUse=1 WtCom= 1.00D+00 WtEn= 0.00D+00
 Coeff-Com: -0.315D-03 0.657D-02-0.635D-02-0.104D+00 0.127D+00 0.977D+00
 Coeff:     -0.315D-03 0.657D-02-0.635D-02-0.104D+00 0.127D+00 0.977D+00
 Gap=     0.667 Goal=   None    Shift=    0.000
 RMSDP=7.62D-07 MaxDP=9.64D-06 DE=-2.13D-08 OVMax= 1.48D-05

 Cycle   7  Pass 1  IDiag  1:
 E= -228.919603163386     Delta-E=       -0.000000001405 Rises=F Damp=F
 DIIS: error= 8.31D-07 at cycle   7 NSaved=   7.
 NSaved= 7 IEnMin= 7 EnMin= -228.919603163386     IErMin= 7 ErrMin= 8.31D-07
 ErrMax= 8.31D-07  0.00D+00 EMaxC= 1.00D-01 BMatC= 4.91D-11 BMatP= 6.71D-10
 IDIUse=1 WtCom= 1.00D+00 WtEn= 0.00D+00
 Coeff-Com: -0.440D-03 0.106D-02 0.492D-02 0.193D-01-0.122D+00-0.293D-01
 Coeff-Com:  0.113D+01
 Coeff:     -0.440D-03 0.106D-02 0.492D-02 0.193D-01-0.122D+00-0.293D-01
 Coeff:      0.113D+01
 Gap=     0.667 Goal=   None    Shift=    0.000
 RMSDP=2.47D-07 MaxDP=2.66D-06 DE=-1.41D-09 OVMax= 5.23D-06

 Cycle   8  Pass 1  IDiag  1:
 E= -228.919603163512     Delta-E=       -0.000000000126 Rises=F Damp=F
 DIIS: error= 2.18D-07 at cycle   8 NSaved=   8.
 NSaved= 8 IEnMin= 8 EnMin= -228.919603163512     IErMin= 8 ErrMin= 2.18D-07
 ErrMax= 2.18D-07  0.00D+00 EMaxC= 1.00D-01 BMatC= 2.37D-12 BMatP= 4.91D-11
 IDIUse=1 WtCom= 1.00D+00 WtEn= 0.00D+00
 Coeff-Com:  0.121D-03-0.618D-03-0.901D-03 0.196D-02 0.182D-01-0.436D-01
 Coeff-Com: -0.221D+00 0.125D+01
 Coeff:      0.121D-03-0.618D-03-0.901D-03 0.196D-02 0.182D-01-0.436D-01
 Coeff:     -0.221D+00 0.125D+01
 Gap=     0.667 Goal=   None    Shift=    0.000
 RMSDP=6.33D-08 MaxDP=7.48D-07 DE=-1.26D-10 OVMax= 1.27D-06

 Cycle   9  Pass 1  IDiag  1:
 E= -228.919603163518     Delta-E=       -0.000000000006 Rises=F Damp=F
 DIIS: error= 5.43D-08 at cycle   9 NSaved=   9.
 NSaved= 9 IEnMin= 9 EnMin= -228.919603163518     IErMin= 9 ErrMin= 5.43D-08
 ErrMax= 5.43D-08  0.00D+00 EMaxC= 1.00D-01 BMatC= 1.55D-13 BMatP= 2.37D-12
 IDIUse=1 WtCom= 1.00D+00 WtEn= 0.00D+00
 Coeff-Com: -0.422D-05 0.103D-03-0.977D-04-0.178D-02 0.307D-02 0.136D-01
 Coeff-Com: -0.113D-01-0.334D+00 0.133D+01
 Coeff:     -0.422D-05 0.103D-03-0.977D-04-0.178D-02 0.307D-02 0.136D-01
 Coeff:     -0.113D-01-0.334D+00 0.133D+01
 Gap=     0.667 Goal=   None    Shift=    0.000
 RMSDP=1.72D-08 MaxDP=2.28D-07 DE=-5.68D-12 OVMax= 3.36D-07

 Cycle  10  Pass 1  IDiag  1:
 E= -228.919603163519     Delta-E=       -0.000000000001 Rises=F Damp=F
 DIIS: error= 8.62D-09 at cycle  10 NSaved=  10.
 NSaved=10 IEnMin=10 EnMin= -228.919603163519     IErMin=10 ErrMin= 8.62D-09
 ErrMax= 8.62D-09  0.00D+00 EMaxC= 1.00D-01 BMatC= 6.04D-15 BMatP= 1.55D-13
 IDIUse=1 WtCom= 1.00D+00 WtEn= 0.00D+00
 Coeff-Com: -0.453D-05 0.466D-05 0.548D-04 0.327D-03-0.148D-02-0.169D-02
 Coeff-Com:  0.114D-01 0.439D-01-0.382D+00 0.133D+01
 Coeff:     -0.453D-05 0.466D-05 0.548D-04 0.327D-03-0.148D-02-0.169D-02
 Coeff:      0.114D-01 0.439D-01-0.382D+00 0.133D+01
 Gap=     0.667 Goal=   None    Shift=    0.000
 RMSDP=3.12D-09 MaxDP=4.26D-08 DE=-1.48D-12 OVMax= 6.29D-08

 SCF Done:  E(RHF) =  -228.919603164     A.U. after   10 cycles
            NFock= 10  Conv=0.31D-08     -V/T= 2.0015
 KE= 2.285808577601D+02 PE=-8.063158532902D+02 EE= 2.155716550491D+02
 Leave Link  502 at Mon Apr  5 19:03:41 2021, MaxMem=  1073741824 cpu:               0.6 elap:               0.4
 (Enter /opt/apps/apps/binapps/gaussian/g16c01_em64t_sandybridge/g16/l701.exe)
 ... and contract with generalized density number  0.
 Compute integral first derivatives.
 Leave Link  701 at Mon Apr  5 19:03:42 2021, MaxMem=  1073741824 cpu:               0.3 elap:               0.1
 (Enter /opt/apps/apps/binapps/gaussian/g16c01_em64t_sandybridge/g16/l702.exe)
 L702 exits ... SP integral derivatives will be done elsewhere.
 Leave Link  702 at Mon Apr  5 19:03:42 2021, MaxMem=  1073741824 cpu:               0.1 elap:               0.0
 (Enter /opt/apps/apps/binapps/gaussian/g16c01_em64t_sandybridge/g16/l703.exe)
 Integral derivatives from FoFJK, PRISM(SPDF).
 Compute integral first derivatives, UseDBF=F ICtDFT=           0.
 Calling FoFJK, ICntrl=      2127 FMM=F ISym2X=0 I1Cent= 0 IOpClX= 0 NMat=1 NMatS=1 NMatT=0.
 FoFJK:  IHMeth= 1 ICntrl=    2127 DoSepK=F KAlg= 0 I1Cent=           0 FoldK=F
 IRaf=         0 NMat=       1 IRICut=       1 DoRegI=T DoRafI=F ISym2E= 0 IDoP0=0 IntGTp=1.
 FoFCou: FMM=F IPFlag=           0 FMFlag=      100000 FMFlg1=         800
         NFxFlg=           0 DoJE=F BraDBF=F KetDBF=F FulRan=T
         wScrn=  0.000000 ICntrl=      2127 IOpCl=  0 I1Cent=           0 NGrid=           0
         NMat0=    1 NMatS0=      1 NMatT0=    0 NMatD0=    1 NMtDS0=    0 NMtDT0=    0
 Symmetry not used in FoFCou.
 Leave Link  703 at Mon Apr  5 19:03:42 2021, MaxMem=  1073741824 cpu:               0.9 elap:               0.4
 (Enter /opt/apps/apps/binapps/gaussian/g16c01_em64t_sandybridge/g16/l716.exe)
[...]
           D11        -57.57550 -57.73467 -67.50987 -67.34301 -67.00944
           D12         62.90324  62.77109  53.01035  53.12864  53.22894
           D13        173.03024 173.03021 173.02997 173.03025 173.03025
           D14        -67.38030 -67.54511 -67.48988 -67.36466 -67.03188
           D15         53.13663  52.97661  52.98912  53.13107  53.22614
                          16        17        18        19        20
     Eigenvalues --    -0.91830  -0.91953  -0.91959  -0.91936  -0.91935
           R1           1.51260   1.51056   1.51115   1.51127   1.51034
           R2           1.39812   1.40007   1.40167   1.40182   1.39982
           R3           1.08923   1.08918   1.08898   1.08895   1.08917
           R4           1.08777   1.08703   1.08619   1.08602   1.08684
           R5           1.39803   1.39959   1.40143   1.40142   1.39981
           R6           1.08940   1.08946   1.08917   1.08923   1.08935
           R7           1.08802   1.08733   1.08647   1.08659   1.08733
           R8           0.94617   0.94634   0.94642   0.94646   0.94641
           R9           0.94578   0.94578   0.94601   0.94603   0.94590
           A1         109.39591 109.05487 108.90749 108.95279 109.07396
           A2         108.67945 108.83363 109.03547 109.00490 108.81721
           A3         108.64116 108.63613 108.63279 108.60017 108.61499
           A4         111.47165 110.96380 110.42634 110.38109 110.91586
           A5         110.63507 111.14912 111.54387 111.56418 111.17350
           A6         107.94758 108.14410 108.24505 108.28636 108.18556
           A7         109.23155 108.90217 108.76319 108.83323 108.93210
           A8         108.52437 108.65784 108.88106 108.66300 108.46463
           A9         108.87969 108.88067 108.83347 108.99210 109.03592
           A10        111.58708 111.10404 110.54245 110.55989 111.09839
           A11        110.60325 111.10835 111.51522 111.50371 111.11096
           A12        107.94984 108.13001 108.25482 108.23384 108.13941
           A13        109.47618 109.62869 109.67870 109.60853 109.54818
           A14        109.61888 109.73293 109.81614 109.81696 109.77179
           D1         -57.05083 -67.05036 -77.05032 -77.05024 -67.05031
           D2        -178.91059 171.79705 162.42864 162.49569 171.90251
           D3          63.82538  54.24260  44.62545  44.75155  54.35890
           D4        -178.96667 171.76883 162.39068 162.43693 171.82579
           D5          59.17357  50.61624  41.86965  41.98286  50.77861
           D6         -58.09046 -66.93821 -75.93355 -75.76129 -66.76500
           D7          63.81787  54.23600  44.62583  44.65828  54.26443
           D8         -58.04188 -66.91658 -75.89520 -75.79579 -66.78275
           D9        -175.30591 175.52897 166.30160 166.46006 175.67364
           D10        163.03052 163.03083 163.03087 163.03082 163.03084
           D11        -76.74754 -77.09605 -77.26971 -77.30650 -77.13375
           D12         43.38148  43.28743  43.14214  43.14040  43.28623
           D13        173.02997 173.03019 173.03024-176.96982-176.96979
           D14        -66.97682 -67.32520 -67.47954 -57.69284 -57.54809
           D15         53.21027  53.10751  53.00423  62.76853  62.89447
                          21        22        23        24        25
     Eigenvalues --    -0.91819  -0.91824  -0.91934  -0.91933  -0.91911
           R1           1.51237   1.51212   1.51018   1.51125   1.51154
           R2           1.39821   1.39798   1.39951   1.40119   1.40137
           R3           1.08917   1.08940   1.08944   1.08920   1.08921
           R4           1.08760   1.08790   1.08712   1.08632   1.08639
           R5           1.39821   1.39832   1.39980   1.40140   1.40139
           R6           1.08932   1.08931   1.08936   1.08914   1.08924
           R7           1.08805   1.08803   1.08733   1.08654   1.08645
           R8           0.94643   0.94640   0.94638   0.94646   0.94644
           R9           0.94576   0.94614   0.94628   0.94638   0.94642
           A1         109.38539 109.26318 108.99846 108.89387 108.96327
           A2         108.69786 108.52319 108.60346 108.79437 108.57572
           A3         108.60702 108.78438 108.77621 108.75846 108.92254
           A4         111.42669 111.52163 111.01964 110.47570 110.48376
           A5         110.64272 110.65054 111.16528 111.55485 111.53623
           A6         108.01200 108.03045 108.21547 108.30800 108.29936
           A7         109.20592 109.24465 109.00207 108.91343 108.96436
           A8         108.33510 108.31842 108.40728 108.60132 108.57709
           A9         109.09281 109.04149 108.99537 108.95723 108.91986
           A10        111.59978 111.56384 111.06462 110.51988 110.48248
           A11        110.59136 110.60423 111.12317 111.50846 111.53424
           A12        107.95362 108.00419 108.18594 108.28257 108.30289
           A13        109.41536 109.42186 109.55048 109.59732 109.60548
           A14        109.63014 109.48697 109.62796 109.67748 109.60620
           D1         -57.05028 -57.05077 -67.05036 -77.05037 -77.05026
           D2        -178.79322-178.76305 171.93626 162.53323 162.56294
           D3          63.92632  63.93377  54.39186  44.78522  44.82526
           D4        -178.91597-178.84909 171.87470 162.48333 162.56286
           D5          59.34109  59.43863  50.86132  42.06692  42.17607
           D6         -57.93937 -57.86455 -66.68308 -75.68108 -75.56162
           D7          63.80054  63.84412  54.30692  44.70774  44.82867
           D8         -57.94240 -57.86816 -66.70645 -75.70866 -75.55812
           D9        -175.22286-175.17134 175.74915 166.54334 166.70419
           D10        163.03091 173.03060 173.03089 173.03085-176.96918
           D11        -76.75971 -66.99817 -67.38202 -67.54415 -57.76430
           D12         43.42596  53.27927  53.14034  52.98803  62.75000
           D13       -176.96973-176.97000-176.96975-176.96979-176.96982
           D14        -57.22120 -57.23943 -57.59497 -57.74270 -57.76335
           D15         62.97107  63.00159  62.89196  62.75636  62.75322
                          26        27
     Eigenvalues --    -0.91917  -0.91813
           R1           1.51039   1.51199
           R2           1.39979   1.39823
           R3           1.08940   1.08933
           R4           1.08717   1.08790
           R5           1.39972   1.39819
           R6           1.08944   1.08938
           R7           1.08722   1.08800
           R8           0.94634   0.94632
           R9           0.94638   0.94633
           A1         109.02952 109.24381
           A2         108.40329 108.32333
           A3         108.96418 109.00283
           A4         111.01371 111.52480
           A5         111.14873 110.63108
           A6         108.21813 108.05037
           A7         109.03257 109.24635
           A8         108.40415 108.32558
           A9         108.96156 108.99754
           A10        111.01148 111.52381
           A11        111.15021 110.62574
           A12        108.21752 108.05724
           A13        109.56293 109.44215
           A14        109.56329 109.44296
           D1         -67.05026 -57.05031
           D2         171.98460-178.71919
           D3          54.42299  63.93458
           D4         171.98422-178.71749
           D5          51.01908  59.61364
           D6         -66.54252 -57.73259
           D7          54.42092  63.94281
           D8         -66.54422 -57.72606
           D9         175.89417-175.07230
           D10       -176.96910-176.96911
           D11        -57.61296 -57.25748
           D12         62.89760  63.03411
           D13       -176.96976-176.96976
           D14        -57.61197 -57.25429
           D15         62.89730  63.04170
 Largest change from initial coordinates is atom    6       0.269 Angstoms.
 GradGradGradGradGradGradGradGradGradGradGradGradGradGradGradGradGradGrad

 Leave Link  103 at Mon Apr  5 19:06:23 2021, MaxMem=  1073741824 cpu:               0.0 elap:               0.0
 (Enter /opt/apps/apps/binapps/gaussian/g16c01_em64t_sandybridge/g16/l202.exe)
                          Input orientation:                          
 ---------------------------------------------------------------------
 Center     Atomic      Atomic             Coordinates (Angstroms)
 Number     Number       Type             X           Y           Z
 ---------------------------------------------------------------------
      1          6           0        0.016560    0.009641    0.006582
      2          6           0        0.012918    0.013807    1.518561
      3          8           0        1.311802    0.244248    1.981942
      4          1           0       -0.369796   -0.946288    1.862807
      5          1           0       -0.662604    0.791382    1.868967
      6          1           0        1.321305    0.201029    2.927229
      7          8           0        0.532462    1.223961   -0.456365
      8          1           0       -1.004773   -0.147992   -0.337909
      9          1           0        0.622805   -0.822914   -0.343902
     10          1           0        0.492734    1.243164   -1.401665
 ---------------------------------------------------------------------
                    Distance matrix (angstroms):
                    1          2          3          4          5
     1  C    0.000000
     2  C    1.511989   0.000000
     3  O    2.373760   1.398186   0.000000
     4  H    2.123356   1.089384   2.063817   0.000000
     5  H    2.130929   1.087997   2.051925   1.762178   0.000000
     6  H    3.204554   1.931650   0.946322   2.304159   2.324721
     7  O    1.398230   2.373759   2.740903   3.301910   2.649996
     8  H    1.089331   2.123288   3.301829   2.425617   2.422768
     9  H    1.087898   2.130923   2.650113   2.422817   3.025726
    10  H    1.931704   3.204569   3.621809   4.024231   3.497992
                    6          7          8          9         10
     6  H    0.000000
     7  O    3.621791   0.000000
     8  H    4.024124   2.063826   0.000000
     9  H    3.498093   2.051952   1.761978   0.000000
    10  H    4.529006   0.946329   2.304218   2.324750   0.000000
 Stoichiometry    C2H6O2
 Framework group  C1[X(C2H6O2)]
 Deg. of freedom    24
 Full point group                 C1      NOp   1
 RotChk:  IX=2 Diff= 3.84D-15
 Largest Abelian subgroup         C1      NOp   1
 Largest concise Abelian subgroup C1      NOp   1
                         Standard orientation:                         
 ---------------------------------------------------------------------
 Center     Atomic      Atomic             Coordinates (Angstroms)
 Number     Number       Type             X           Y           Z
 ---------------------------------------------------------------------
      1          6           0       -0.713000    0.557529    0.251295
      2          6           0        0.713008    0.557482   -0.251309
      3          8           0        1.357209   -0.602309    0.190066
      4          1           0        1.206938    1.454823    0.119598
      5          1           0        0.705391    0.601589   -1.338385
      6          1           0        2.262957   -0.583013   -0.083380
      7          8           0       -1.357212   -0.602330   -0.190027
      8          1           0       -1.206846    1.454810   -0.119711
      9          1           0       -0.705485    0.601866    1.338264
     10          1           0       -2.262978   -0.583022    0.083386
 ---------------------------------------------------------------------
 Rotational constants (GHZ):          16.3634735           5.5104823           4.5924558
 Leave Link  202 at Mon Apr  5 19:06:23 2021, MaxMem=  1073741824 cpu:               0.0 elap:               0.0
 (Enter /opt/apps/apps/binapps/gaussian/g16c01_em64t_sandybridge/g16/l601.exe)
 Copying SCF densities to generalized density rwf, IOpCl= 0 IROHF=0.

 **********************************************************************

            Population analysis using the SCF Density.

 **********************************************************************

 Orbital symmetries:
       Occupied  (A) (A) (A) (A) (A) (A) (A) (A) (A) (A) (A) (A)
                 (A) (A) (A) (A) (A)
       Virtual   (A) (A) (A) (A) (A) (A) (A) (A) (A) (A) (A) (A)
                 (A) (A) (A) (A) (A) (A) (A) (A) (A) (A) (A) (A)
                 (A) (A) (A) (A) (A) (A) (A) (A) (A) (A) (A) (A)
                 (A) (A) (A) (A) (A) (A) (A) (A) (A) (A) (A) (A)
                 (A) (A) (A) (A) (A) (A) (A)
 The electronic state is 1-A.
 Alpha  occ. eigenvalues --  -20.55146 -20.55145 -11.27082 -11.27017  -1.37151
 Alpha  occ. eigenvalues --   -1.34907  -1.00201  -0.82925  -0.72188  -0.69342
 Alpha  occ. eigenvalues --   -0.62749  -0.59802  -0.58007  -0.52065  -0.47693
 Alpha  occ. eigenvalues --   -0.44040  -0.43410
 Alpha virt. eigenvalues --    0.21807   0.24807   0.27580   0.31392   0.32154
 Alpha virt. eigenvalues --    0.34689   0.40238   0.41671   0.42531   0.75288
 Alpha virt. eigenvalues --    0.81732   0.81817   0.82359   0.89090   0.92910
 Alpha virt. eigenvalues --    1.05978   1.11632   1.12653   1.13702   1.14112
 Alpha virt. eigenvalues --    1.19842   1.21008   1.27892   1.27918   1.30038
 Alpha virt. eigenvalues --    1.30731   1.43946   1.44342   1.60741   1.69722
 Alpha virt. eigenvalues --    1.75659   1.81492   1.97344   2.00795   2.02591
 Alpha virt. eigenvalues --    2.06613   2.08355   2.22728   2.37340   2.43255
 Alpha virt. eigenvalues --    2.45328   2.49098   2.69720   2.71950   2.74815
 Alpha virt. eigenvalues --    2.79527   2.82968   2.93924   3.04323   3.17640
 Alpha virt. eigenvalues --    3.26450   4.14345   4.19830   4.63548   4.85895
          Condensed to atoms (all electrons):
               1          2          3          4          5          6
     1  C    4.785646   0.365144  -0.057457  -0.046747  -0.040912   0.006280
     2  C    0.365144   4.785668   0.220426   0.395311   0.394765  -0.022980
     3  O   -0.057457   0.220426   8.369517  -0.038032  -0.042041   0.263168
     4  H   -0.046747   0.395311  -0.038032   0.601788  -0.044501  -0.004218
     5  H   -0.040912   0.394765  -0.042041  -0.044501   0.583338  -0.003092
     6  H    0.006280  -0.022980   0.263168  -0.004218  -0.003092   0.322281
     7  O    0.220438  -0.057461   0.004571   0.003064   0.000495  -0.000155
     8  H    0.395315  -0.046748   0.003065   0.001729  -0.002877  -0.000175
     9  H    0.394760  -0.040904   0.000495  -0.002876   0.005787  -0.000239
    10  H   -0.022977   0.006280  -0.000155  -0.000175  -0.000240   0.000015
               7          8          9         10
     1  C    0.220438   0.395315   0.394760  -0.022977
     2  C   -0.057461  -0.046748  -0.040904   0.006280
     3  O    0.004571   0.003065   0.000495  -0.000155
     4  H    0.003064   0.001729  -0.002876  -0.000175
     5  H    0.000495  -0.002877   0.005787  -0.000240
     6  H   -0.000155  -0.000175  -0.000239   0.000015
     7  O    8.369520  -0.038027  -0.042028   0.263163
     8  H   -0.038027   0.601787  -0.044519  -0.004217
     9  H   -0.042028  -0.044519   0.583317  -0.003091
    10  H    0.263163  -0.004217  -0.003091   0.322285
 Mulliken charges:
               1
     1  C    0.000509
     2  C    0.000499
     3  O   -0.723557
     4  H    0.134658
     5  H    0.149277
     6  H    0.439115
     7  O   -0.723581
     8  H    0.134668
     9  H    0.149298
    10  H    0.439113
 Sum of Mulliken charges =  -0.00000
 Mulliken charges with hydrogens summed into heavy atoms:
               1
     1  C    0.284475
     2  C    0.284434
     3  O   -0.284441
     7  O   -0.284468
 Electronic spatial extent (au):  <R**2>=            299.5408
 Charge=             -0.0000 electrons
 Dipole moment (field-independent basis, Debye):
    X=             -0.0000    Y=              2.4687    Z=              0.0000  Tot=              2.4687
 Quadrupole moment (field-independent basis, Debye-Ang):
   XX=            -15.4560   YY=            -26.4436   ZZ=            -25.4646
   XY=             -0.0002   XZ=             -2.9856   YZ=              0.0004
 Traceless Quadrupole moment (field-independent basis, Debye-Ang):
   XX=              6.9987   YY=             -3.9888   ZZ=             -3.0099
   XY=             -0.0002   XZ=             -2.9856   YZ=              0.0004
 Octapole moment (field-independent basis, Debye-Ang**2):
  XXX=             -0.0005  YYY=             -2.5783  ZZZ=              0.0005  XYY=             -0.0001
  XXY=             -5.6886  XXZ=              0.0002  XZZ=             -0.0004  YZZ=             -0.8842
  YYZ=              0.0004  XYZ=              1.7678
 Hexadecapole moment (field-independent basis, Debye-Ang**3):
 XXXX=           -133.3473 YYYY=            -90.4956 ZZZZ=            -43.4815 XXXY=             -0.0000
 XXXZ=             -7.4573 YYYX=             -0.0004 YYYZ=              0.0006 ZZZX=             -0.5966
 ZZZY=              0.0007 XXYY=            -48.7063 XXZZ=            -45.8775 YYZZ=            -23.0399
 XXYZ=              0.0005 YYXZ=              0.2698 ZZXY=             -0.0005
 N-N= 1.338957599930D+02 E-N=-8.076205780488D+02  KE= 2.285701753573D+02
 No NMR shielding tensors so no spin-rotation constants.
 Leave Link  601 at Mon Apr  5 19:06:23 2021, MaxMem=  1073741824 cpu:               0.3 elap:               0.1
 (Enter /opt/apps/apps/binapps/gaussian/g16c01_em64t_sandybridge/g16/l9999.exe)
 B after Tr=    -0.139499   -0.002582    0.002599
         Rot=    0.999566   -0.022997   -0.018423   -0.000029 Ang=  -3.38 deg.
 Final structure in terms of initial Z-matrix:
 C
 C,1,B1
 O,2,B2,1,A2
 H,2,B3,1,A3,3,D3,0
 H,2,B4,1,A4,3,D4,0
 H,3,B5,2,A5,1,D5,0
 O,1,B6,2,A6,3,D6,0
 H,1,B7,2,A7,3,D7,0
 H,1,B8,2,A8,3,D8,0
 H,7,B9,1,A9,2,D9,0
      Variables:
 B1=1.51198885
 B2=1.39818555
 A2=109.24634737
 B3=1.08938424
 A3=108.32558363
 D3=-121.66887683
 B4=1.08799702
 A4=108.99754194
 D4=120.98489232
 B5=0.94632207
 A5=109.44215289
 D5=-176.96976054
 B6=1.39823
 A6=109.24381197
 D6=-57.05031402
 B7=1.08933134
 A7=108.32333228
 D7=-178.71748676
 B8=1.08789786
 A8=109.00283169
 D8=63.94281202
 B9=0.94632934
 A9=109.44296498
 D9=-176.96910973
 Unable to Open any file for archive entry.
 1\1\GINC-NODE405\Scan\RHF\6-31G(d)\C2H6O2\MBDXWJK2\05-Apr-2021\0\\#P H
 F/6-31G* opt=ModRedundant\\ethanediol scan test\\0,1\C,0.0165598544,0.
 0096412691,0.0065822117\C,0.0129183864,0.0138071446,1.518560939\O,1.31
 18017262,0.2442480304,1.9819418952\H,-0.3697959214,-0.9462878554,1.862
 8070255\H,-0.6626043291,0.7913816844,1.8689670119\H,1.3213047237,0.201
 0285985,2.9272287461\O,0.5324620117,1.2239608568,-0.4563648992\H,-1.00
 47728553,-0.1479924705,-0.3379085127\H,0.6228053835,-0.8229144309,-0.3
 439019096\H,0.492733942,1.2431639019,-1.4016649315\\Version=ES64L-G16R
 evC.01\State=1-A\HF=-228.919624,-228.9195357,-228.918238,-228.9182949,
 -228.9195272,-228.9195855,-228.91936,-228.9193513,-228.9181943,-228.91
 82443,-228.9193449,-228.9193286,-228.9195501,-228.9195205,-228.9183488
 ,-228.918295,-228.9195273,-228.9195855,-228.91936,-228.9193514,-228.91
 81944,-228.9182444,-228.919345,-228.9193286,-228.9191099,-228.9191675,
 -228.9181332\RMSD=4.126e-09,5.269e-09,4.675e-09,8.190e-09,6.773e-09,3.
 463e-09,6.638e-09,5.260e-09,5.209e-09,3.276e-09,6.061e-09,6.568e-09,2.
 170e-09,5.217e-09,5.195e-09,9.323e-09,6.121e-09,6.417e-09,4.755e-09,5.
 038e-09,4.688e-09,9.831e-09,6.052e-09,6.404e-09,3.772e-09,4.944e-09,4.
 938e-09\PG=C01 [X(C2H6O2)]\\@
 The archive entry for this job was punched.


 I SUPPOSE A BABY LLAMA HAS A MMAMA AND A PPOPA.
     -- RICHARD AMOUR
 Job cpu time:       0 days  0 hours  5 minutes  8.7 seconds.
 Elapsed time:       0 days  0 hours  2 minutes 38.0 seconds.
 File lengths (MBytes):  RWF=     10 Int=      0 D2E=      0 Chk=      3 Scr=      1
 Normal termination of Gaussian 16 at Mon Apr  5 19:06:23 2021.
