 Entering Gaussian System, Link 0=/opt/apps/apps/binapps/gaussian/g09d01_em64t/g09/g09
 Initial command:
 /opt/apps/apps/binapps/gaussian/g09d01_em64t/g09/l1.exe "/tmp/1305530.1.parallel.q/tmp_g03.66643/Gau-66697.inp" -scrdir="/tmp/1305530.1.parallel.q/tmp_g03.66643/"
 Entering Link 1 = /opt/apps/apps/binapps/gaussian/g09d01_em64t/g09/l1.exe PID=     66698.
  
 Copyright (c) 1988,1990,1992,1993,1995,1998,2003,2009,2013,
            Gaussian, Inc.  All Rights Reserved.
  
 This is part of the Gaussian(R) 09 program.  It is based on
 the Gaussian(R) 03 system (copyright 2003, Gaussian, Inc.),
 the Gaussian(R) 98 system (copyright 1998, Gaussian, Inc.),
 the Gaussian(R) 94 system (copyright 1995, Gaussian, Inc.),
 the Gaussian 92(TM) system (copyright 1992, Gaussian, Inc.),
 the Gaussian 90(TM) system (copyright 1990, Gaussian, Inc.),
 the Gaussian 88(TM) system (copyright 1988, Gaussian, Inc.),
 the Gaussian 86(TM) system (copyright 1986, Carnegie Mellon
 University), and the Gaussian 82(TM) system (copyright 1983,
 Carnegie Mellon University). Gaussian is a federally registered
 trademark of Gaussian, Inc.
  
 This software contains proprietary and confidential information,
 including trade secrets, belonging to Gaussian, Inc.
  
 This software is provided under written license and may be
 used, copied, transmitted, or stored only in accord with that
 written license.
  
 The following legend is applicable only to US Government
 contracts under FAR:
  
                    RESTRICTED RIGHTS LEGEND
  
 Use, reproduction and disclosure by the US Government is
 subject to restrictions as set forth in subparagraphs (a)
 and (c) of the Commercial Computer Software - Restricted
 Rights clause in FAR 52.227-19.
  
 Gaussian, Inc.
 340 Quinnipiac St., Bldg. 40, Wallingford CT 06492
  
  
 ---------------------------------------------------------------
 Warning -- This program may not be used in any manner that
 competes with the business of Gaussian, Inc. or will provide
 assistance to any competitor of Gaussian, Inc.  The licensee
 of this program is prohibited from giving any competitor of
 Gaussian, Inc. access to this program.  By using this program,
 the user acknowledges that Gaussian, Inc. is engaged in the
 business of creating and licensing software in the field of
 computational chemistry and represents and warrants to the
 licensee that it is not a competitor of Gaussian, Inc. and that
 it will not use this program in any manner prohibited above.
 ---------------------------------------------------------------
  

 Cite this work as:
 Gaussian 09, Revision D.01,
 M. J. Frisch, G. W. Trucks, H. B. Schlegel, G. E. Scuseria, 
 M. A. Robb, J. R. Cheeseman, G. Scalmani, V. Barone, B. Mennucci, 
 G. A. Petersson, H. Nakatsuji, M. Caricato, X. Li, H. P. Hratchian, 
 A. F. Izmaylov, J. Bloino, G. Zheng, J. L. Sonnenberg, M. Hada, 
 M. Ehara, K. Toyota, R. Fukuda, J. Hasegawa, M. Ishida, T. Nakajima, 
 Y. Honda, O. Kitao, H. Nakai, T. Vreven, J. A. Montgomery, Jr., 
 J. E. Peralta, F. Ogliaro, M. Bearpark, J. J. Heyd, E. Brothers, 
 K. N. Kudin, V. N. Staroverov, T. Keith, R. Kobayashi, J. Normand, 
 K. Raghavachari, A. Rendell, J. C. Burant, S. S. Iyengar, J. Tomasi, 
 M. Cossi, N. Rega, J. M. Millam, M. Klene, J. E. Knox, J. B. Cross, 
 V. Bakken, C. Adamo, J. Jaramillo, R. Gomperts, R. E. Stratmann, 
 O. Yazyev, A. J. Austin, R. Cammi, C. Pomelli, J. W. Ochterski, 
 R. L. Martin, K. Morokuma, V. G. Zakrzewski, G. A. Voth, 
 P. Salvador, J. J. Dannenberg, S. Dapprich, A. D. Daniels, 
 O. Farkas, J. B. Foresman, J. V. Ortiz, J. Cioslowski, 
 and D. J. Fox, Gaussian, Inc., Wallingford CT, 2013.
 
 ******************************************
 Gaussian 09:  ES64L-G09RevD.01 24-Apr-2013
                17-Jun-2020 
 ******************************************
 %save
 %nprocshared=4
 Will use up to    4 processors via shared memory.
 %chk=HCOH-C-O.chk
 ---------------------------------------------------
 # opt=modredundant b3lyp/6-31g(d) geom=connectivity
 ---------------------------------------------------
 1/14=-1,18=120,19=15,26=3,38=1,57=2/1,3;
 2/9=110,12=2,17=6,18=5,40=1/2;
 3/5=1,6=6,7=1,11=2,16=1,25=1,30=1,71=1,74=-5/1,2,3;
 4//1;
 5/5=2,38=5/2;
 6/7=2,8=2,9=2,10=2,28=1/1;
 7//1,2,3,16;
 1/14=-1,18=20,19=15,26=3/3(2);
 2/9=110/2;
 99//99;
 2/9=110/2;
 3/5=1,6=6,7=1,11=2,16=1,25=1,30=1,71=1,74=-5/1,2,3;
 4/5=5,16=3,69=1/1;
 5/5=2,38=5/2;
 7//1,2,3,16;
 1/14=-1,18=20,19=15,26=3/3(-5);
 2/9=110/2;
 6/7=2,8=2,9=2,10=2,19=2,28=1/1;
 99/9=1/99;
 -------------------
 Title Card Required
 -------------------
 Symbolic Z-matrix:
 Charge =  0 Multiplicity = 1
 C                     0.        0.54894   0. 
 H                     0.93776   1.12349   0. 
 H                    -0.93776   1.1235    0. 
 O                     0.       -0.64758   0. 
 
 The following ModRedundant input section has been read:
 B       1       4 S   6 0.0050                                                
 

 GradGradGradGradGradGradGradGradGradGradGradGradGradGradGradGradGradGrad
 Berny optimization.
 Initialization pass.
                           ----------------------------
                           !    Initial Parameters    !
                           ! (Angstroms and Degrees)  !
 --------------------------                            --------------------------
 ! Name  Definition              Value          Derivative Info.                !
 --------------------------------------------------------------------------------
 ! R1    R(1,2)                  1.0998         estimate D2E/DX2                !
 ! R2    R(1,3)                  1.0998         estimate D2E/DX2                !
 ! R3    R(1,4)                  1.1965         Scan                            !
 ! A1    A(2,1,3)              117.0099         estimate D2E/DX2                !
 ! A2    A(2,1,4)              121.4948         estimate D2E/DX2                !
 ! A3    A(3,1,4)              121.4953         estimate D2E/DX2                !
 ! D1    D(2,1,4,3)            180.0            estimate D2E/DX2                !
 --------------------------------------------------------------------------------
 Trust Radius=3.00D-01 FncErr=1.00D-07 GrdErr=1.00D-06
 Number of optimizations in scan=   7
 Number of steps in this run=     20 maximum allowed number of steps=    100.
 GradGradGradGradGradGradGradGradGradGradGradGradGradGradGradGradGradGrad

                          Input orientation:                          
 ---------------------------------------------------------------------
 Center     Atomic      Atomic             Coordinates (Angstroms)
 Number     Number       Type             X           Y           Z
 ---------------------------------------------------------------------
      1          6           0        0.000000    0.548942    0.000000
      2          1           0        0.937762    1.123486    0.000000
      3          1           0       -0.937759    1.123495    0.000000
      4          8           0        0.000000   -0.647578    0.000000
 ---------------------------------------------------------------------
                    Distance matrix (angstroms):
                    1          2          3          4
     1  C    0.000000
     2  H    1.099772   0.000000
     3  H    1.099774   1.875521   0.000000
     4  O    1.196520   2.004012   2.004019   0.000000
 Stoichiometry    CH2O
 Framework group  CS[SG(CH2O)]
 Deg. of freedom     5
 Full point group                 CS      NOp   2
 Largest Abelian subgroup         CS      NOp   2
 Largest concise Abelian subgroup C1      NOp   1
                         Standard orientation:                         
 ---------------------------------------------------------------------
 Center     Atomic      Atomic             Coordinates (Angstroms)
 Number     Number       Type             X           Y           Z
 ---------------------------------------------------------------------
      1          6           0        0.000000   -0.526441    0.000000
      2          1           0       -0.937762   -1.100985    0.000000
      3          1           0        0.937759   -1.100994    0.000000
      4          8           0        0.000000    0.670079    0.000000
 ---------------------------------------------------------------------
 Rotational constants (GHZ):    285.1137656     39.5066116     34.6986190
 Standard basis: 6-31G(d) (6D, 7F)
 There are    26 symmetry adapted cartesian basis functions of A'  symmetry.
 There are     8 symmetry adapted cartesian basis functions of A"  symmetry.
 There are    26 symmetry adapted basis functions of A'  symmetry.
 There are     8 symmetry adapted basis functions of A"  symmetry.
    34 basis functions,    64 primitive gaussians,    34 cartesian basis functions
     8 alpha electrons        8 beta electrons
       nuclear repulsion energy        31.5097694233 Hartrees.
 NAtoms=    4 NActive=    4 NUniq=    4 SFac= 1.00D+00 NAtFMM=   60 NAOKFM=F Big=F
 Integral buffers will be    131072 words long.
 Raffenetti 2 integral format.
 Two-electron integral symmetry is turned on.
 One-electron integrals computed using PRISM.
 NBasis=    34 RedAO= T EigKep=  1.24D-02  NBF=    26     8
 NBsUse=    34 1.00D-06 EigRej= -1.00D+00 NBFU=    26     8
 ExpMin= 1.61D-01 ExpMax= 5.48D+03 ExpMxC= 8.25D+02 IAcc=1 IRadAn=         1 AccDes= 0.00D+00
 Harris functional with IExCor=  402 and IRadAn=       1 diagonalized for initial guess.
 HarFok:  IExCor=  402 AccDes= 0.00D+00 IRadAn=         1 IDoV= 1 UseB2=F ITyADJ=14
 ICtDFT=  3500011 ScaDFX=  1.000000  1.000000  1.000000  1.000000
 FoFCou: FMM=F IPFlag=           0 FMFlag=      100000 FMFlg1=           0
         NFxFlg=           0 DoJE=T BraDBF=F KetDBF=T FulRan=T
         wScrn=  0.000000 ICntrl=     500 IOpCl=  0 I1Cent=   200000004 NGrid=           0
         NMat0=    1 NMatS0=      1 NMatT0=    0 NMatD0=    1 NMtDS0=    0 NMtDT0=    0
 Petite list used in FoFCou.
 Initial guess orbital symmetries:
       Occupied  (A') (A') (A') (A') (A') (A') (A") (A')
       Virtual   (A") (A') (A') (A') (A") (A') (A') (A') (A') (A')
                 (A') (A") (A') (A') (A") (A") (A') (A') (A") (A')
                 (A') (A") (A') (A') (A') (A')
 The electronic state of the initial guess is 1-A'.
 Keep R1 ints in memory in symmetry-blocked form, NReq=1061604.
 Requested convergence on RMS density matrix=1.00D-08 within 128 cycles.
 Requested convergence on MAX density matrix=1.00D-06.
 Requested convergence on             energy=1.00D-06.
 No special actions if energy rises.
 Integral accuracy reduced to 1.0D-05 until final iterations.
 Initial convergence to 1.0D-05 achieved.  Increase integral accuracy.
 SCF Done:  E(RB3LYP) =  -114.500038518     A.U. after   12 cycles
            NFock= 12  Conv=0.12D-08     -V/T= 2.0083

 **********************************************************************

            Population analysis using the SCF density.

 **********************************************************************

 Orbital symmetries:
       Occupied  (A') (A') (A') (A') (A') (A') (A") (A')
       Virtual   (A") (A') (A') (A') (A") (A') (A') (A') (A') (A')
                 (A') (A") (A') (A') (A") (A") (A') (A') (A") (A')
                 (A') (A") (A') (A') (A') (A')
 The electronic state is 1-A'.
 Alpha  occ. eigenvalues --  -19.16744 -10.28515  -1.06547  -0.63725  -0.50064
 Alpha  occ. eigenvalues --   -0.44928  -0.40160  -0.26720
 Alpha virt. eigenvalues --   -0.03872   0.10483   0.18576   0.22078   0.50647
 Alpha virt. eigenvalues --    0.62068   0.63144   0.70269   0.82499   0.83921
 Alpha virt. eigenvalues --    0.89558   0.96118   1.06163   1.38104   1.50154
 Alpha virt. eigenvalues --    1.51624   1.68350   1.86578   1.93513   2.13998
 Alpha virt. eigenvalues --    2.30561   2.55216   2.66153   2.92396   3.69359
 Alpha virt. eigenvalues --    4.06026
          Condensed to atoms (all electrons):
               1          2          3          4
     1  C    4.687900   0.332905   0.332904   0.566001
     2  H    0.332905   0.700467  -0.095316  -0.058043
     3  H    0.332904  -0.095316   0.700468  -0.058042
     4  O    0.566001  -0.058043  -0.058042   7.870346
 Mulliken charges:
               1
     1  C    0.080290
     2  H    0.119986
     3  H    0.119986
     4  O   -0.320263
 Sum of Mulliken charges =   0.00000
 Mulliken charges with hydrogens summed into heavy atoms:
               1
     1  C    0.320263
     4  O   -0.320263
 Electronic spatial extent (au):  <R**2>=             59.5599
 Charge=              0.0000 electrons
 Dipole moment (field-independent basis, Debye):
    X=              0.0000    Y=             -2.1582    Z=              0.0000  Tot=              2.1582
 Quadrupole moment (field-independent basis, Debye-Ang):
   XX=            -11.4526   YY=            -11.9649   ZZ=            -11.3598
   XY=              0.0000   XZ=              0.0000   YZ=              0.0000
 Traceless Quadrupole moment (field-independent basis, Debye-Ang):
   XX=              0.1398   YY=             -0.3725   ZZ=              0.2326
   XY=              0.0000   XZ=              0.0000   YZ=              0.0000
 Octapole moment (field-independent basis, Debye-Ang**2):
  XXX=              0.0000  YYY=              1.2899  ZZZ=              0.0000  XYY=              0.0000
  XXY=              0.0705  XXZ=              0.0000  XZZ=              0.0000  YZZ=              0.8878
  YYZ=              0.0000  XYZ=              0.0000
 Hexadecapole moment (field-independent basis, Debye-Ang**3):
 XXXX=            -17.8437 YYYY=            -43.6226 ZZZZ=             -9.1245 XXXY=              0.0000
 XXXZ=              0.0000 YYYX=              0.0000 YYYZ=              0.0000 ZZZX=              0.0000
 ZZZY=              0.0000 XXYY=            -10.0501 XXZZ=             -4.6978 YYZZ=             -8.7240
 XXYZ=              0.0000 YYXZ=              0.0000 ZZXY=              0.0000
 N-N= 3.150976942327D+01 E-N=-3.314734843354D+02  KE= 1.135555025005D+02
 Symmetry A'   KE= 1.099199581024D+02
 Symmetry A"   KE= 3.635544398088D+00
 Calling FoFJK, ICntrl=      2127 FMM=F ISym2X=1 I1Cent= 0 IOpClX= 0 NMat=1 NMatS=1 NMatT=0.
 ***** Axes restored to original set *****
 -------------------------------------------------------------------
 Center     Atomic                   Forces (Hartrees/Bohr)
 Number     Number              X              Y              Z
 -------------------------------------------------------------------
      1        6          -0.000000040    0.008196935    0.000000000
      2        1           0.004149971    0.006337938    0.000000000
      3        1          -0.004149168    0.006336532    0.000000000
      4        8          -0.000000763   -0.020871405    0.000000000
 -------------------------------------------------------------------
 Cartesian Forces:  Max     0.020871405 RMS     0.007173820

 GradGradGradGradGradGradGradGradGradGradGradGradGradGradGradGradGradGrad
 Berny optimization.
 FormGI is forming the generalized inverse of G from B-inverse, IUseBI=4.
 Internal  Forces:  Max     0.020871405 RMS     0.008940942
 Search for a local minimum.
 Step number   1 out of a maximum of   20 on scan point     1 out of     7
 All quantities printed in internal units (Hartrees-Bohrs-Radians)
 Mixed Optimization -- RFO/linear search
 Second derivative matrix not updated -- first step.
 The second derivative matrix:
                          R1        R2        R3        A1        A2
           R1           0.33707
           R2           0.00000   0.33707
           R3           0.00000   0.00000   1.06591
           A1           0.00000   0.00000   0.00000   0.16000
           A2           0.00000   0.00000   0.00000   0.00000   0.16000
           A3           0.00000   0.00000   0.00000   0.00000   0.00000
           D1           0.00000   0.00000   0.00000   0.00000   0.00000
                          A3        D1
           A3           0.16000
           D1           0.00000   0.04383
 ITU=  0
     Eigenvalues ---    0.04383   0.16000   0.16000   0.33707   0.33707
     Eigenvalues --- 1000.000001000.00000
 RFO step:  Lambda=-4.65834467D-04 EMin= 4.38343062D-02
 Linear search not attempted -- first point.
 Iteration  1 RMS(Cart)=  0.01341202 RMS(Int)=  0.00016542
 Iteration  2 RMS(Cart)=  0.00017950 RMS(Int)=  0.00000002
 Iteration  3 RMS(Cart)=  0.00000001 RMS(Int)=  0.00000000
 Iteration  1 RMS(Cart)=  0.00000000 RMS(Int)=  0.00000000
 ClnCor:  largest displacement from symmetrization is 0.00D+00 for atom     0.
 Variable       Old X    -DE/DX   Delta X   Delta X   Delta X     New X
                                 (Linear)    (Quad)   (Total)
    R1        2.07827   0.00685   0.00000   0.02029   0.02029   2.09856
    R2        2.07827   0.00685   0.00000   0.02029   0.02029   2.09856
    R3        2.26110   0.02087   0.00000   0.00000   0.00000   2.26110
    A1        2.04221  -0.00448   0.00000  -0.02794  -0.02794   2.01427
    A2        2.12048   0.00224   0.00000   0.01397   0.01397   2.13446
    A3        2.12049   0.00224   0.00000   0.01396   0.01396   2.13446
    D1        3.14159   0.00000   0.00000   0.00000   0.00000   3.14159
         Item               Value     Threshold  Converged?
 Maximum Force            0.006850     0.000450     NO 
 RMS     Force            0.004545     0.000300     NO 
 Maximum Displacement     0.017750     0.001800     NO 
 RMS     Displacement     0.013449     0.001200     NO 
 Predicted change in Energy=-2.333827D-04
 GradGradGradGradGradGradGradGradGradGradGradGradGradGradGradGradGradGrad

                          Input orientation:                          
 ---------------------------------------------------------------------
 Center     Atomic      Atomic             Coordinates (Angstroms)
 Number     Number       Type             X           Y           Z
 ---------------------------------------------------------------------
      1          6           0        0.000001    0.539552    0.000000
      2          1           0        0.938722    1.132879    0.000000
      3          1           0       -0.938717    1.132883    0.000000
      4          8           0       -0.000003   -0.656968    0.000000
 ---------------------------------------------------------------------
                    Distance matrix (angstroms):
                    1          2          3          4
     1  C    0.000000
     2  H    1.110511   0.000000
     3  H    1.110511   1.877439   0.000000
     4  O    1.196520   2.021078   2.021077   0.000000
 Stoichiometry    CH2O
 Framework group  CS[SG(CH2O)]
 Deg. of freedom     5
 Full point group                 CS      NOp   2
 Largest Abelian subgroup         CS      NOp   2
 Largest concise Abelian subgroup C1      NOp   1
                         Standard orientation:                         
 ---------------------------------------------------------------------
 Center     Atomic      Atomic             Coordinates (Angstroms)
 Number     Number       Type             X           Y           Z
 ---------------------------------------------------------------------
      1          6           0        0.000000   -0.524094    0.000000
      2          1           0       -0.938719   -1.117424    0.000000
      3          1           0        0.938720   -1.117422    0.000000
      4          8           0        0.000000    0.672426    0.000000
 ---------------------------------------------------------------------
 Rotational constants (GHZ):    284.5314796     39.2320593     34.4781130
 Standard basis: 6-31G(d) (6D, 7F)
 There are    26 symmetry adapted cartesian basis functions of A'  symmetry.
 There are     8 symmetry adapted cartesian basis functions of A"  symmetry.
 There are    26 symmetry adapted basis functions of A'  symmetry.
 There are     8 symmetry adapted basis functions of A"  symmetry.
    34 basis functions,    64 primitive gaussians,    34 cartesian basis functions
     8 alpha electrons        8 beta electrons
       nuclear repulsion energy        31.4179850076 Hartrees.
 NAtoms=    4 NActive=    4 NUniq=    4 SFac= 1.00D+00 NAtFMM=   60 NAOKFM=F Big=F
 Integral buffers will be    131072 words long.
 Raffenetti 2 integral format.
 Two-electron integral symmetry is turned on.
 One-electron integrals computed using PRISM.
 NBasis=    34 RedAO= T EigKep=  1.25D-02  NBF=    26     8
 NBsUse=    34 1.00D-06 EigRej= -1.00D+00 NBFU=    26     8
 Initial guess from the checkpoint file:  "HCOH-C-O.chk"
 B after Tr=     0.000000    0.000000    0.000000
         Rot=    1.000000    0.000000    0.000000   -0.000001 Ang=   0.00 deg.
 Initial guess orbital symmetries:
       Occupied  (A') (A') (A') (A') (A') (A') (A") (A')
       Virtual   (A') (A') (A') (A') (A') (A') (A') (A') (A') (A')
                 (A') (A') (A') (A') (A') (A') (A') (A') (A') (A")
                 (A") (A") (A") (A") (A") (A")
 Keep R1 ints in memory in symmetry-blocked form, NReq=1061604.
 Requested convergence on RMS density matrix=1.00D-08 within 128 cycles.
 Requested convergence on MAX density matrix=1.00D-06.
 Requested convergence on             energy=1.00D-06.
 No special actions if energy rises.
 SCF Done:  E(RB3LYP) =  -114.500305827     A.U. after    8 cycles
            NFock=  8  Conv=0.60D-08     -V/T= 2.0086
 Calling FoFJK, ICntrl=      2127 FMM=F ISym2X=1 I1Cent= 0 IOpClX= 0 NMat=1 NMatS=1 NMatT=0.
 ***** Axes restored to original set *****
 -------------------------------------------------------------------
 Center     Atomic                   Forces (Hartrees/Bohr)
 Number     Number              X              Y              Z
 -------------------------------------------------------------------
      1        6          -0.000000261    0.015689780    0.000000000
      2        1           0.000135447    0.000997648    0.000000000
      3        1          -0.000135329    0.000997837    0.000000000
      4        8           0.000000144   -0.017685264    0.000000000
 -------------------------------------------------------------------
 Cartesian Forces:  Max     0.017685264 RMS     0.006837186

 GradGradGradGradGradGradGradGradGradGradGradGradGradGradGradGradGradGrad
 Berny optimization.
 Using GEDIIS/GDIIS optimizer.
 FormGI is forming the generalized inverse of G from B-inverse, IUseBI=4.
 Internal  Forces:  Max     0.017685264 RMS     0.006711958
 Search for a local minimum.
 Step number   2 out of a maximum of   20 on scan point     1 out of     7
 All quantities printed in internal units (Hartrees-Bohrs-Radians)
 Mixed Optimization -- En-DIIS/RFO-DIIS
 Update second derivatives using D2CorX and points    1    2
 DE= -2.67D-04 DEPred=-2.33D-04 R= 1.15D+00
 TightC=F SS=  1.41D+00  RLast= 4.47D-02 DXNew= 5.0454D-01 1.3397D-01
 Trust test= 1.15D+00 RLast= 4.47D-02 DXMaxT set to 3.00D-01
 The second derivative matrix:
                          R1        R2        R3        A1        A2
           R1           0.33398
           R2          -0.00310   0.33397
           R3           0.05011   0.05010   1.09166
           A1           0.01223   0.01223  -0.02751   0.14641
           A2          -0.00611  -0.00611   0.01376   0.00679   0.15660
           A3          -0.00612  -0.00612   0.01374   0.00680  -0.00340
           D1           0.00000   0.00000   0.00000   0.00000   0.00000
                          A3        D1
           A3           0.15660
           D1           0.00000   0.04383
 ITU=  1  0
 Use linear search instead of GDIIS.
     Eigenvalues ---    0.04383   0.13730   0.16000   0.33319   0.33707
     Eigenvalues --- 1000.000001000.00000
 RFO step:  Lambda=-3.48593440D-06 EMin= 4.38343062D-02
 Quartic linear search produced a step of  0.18579.
 Iteration  1 RMS(Cart)=  0.00357258 RMS(Int)=  0.00001076
 Iteration  2 RMS(Cart)=  0.00001120 RMS(Int)=  0.00000000
 Iteration  3 RMS(Cart)=  0.00000000 RMS(Int)=  0.00000000
 Iteration  1 RMS(Cart)=  0.00000000 RMS(Int)=  0.00000000
 ClnCor:  largest displacement from symmetrization is 1.42D-15 for atom     2.
 Variable       Old X    -DE/DX   Delta X   Delta X   Delta X     New X
                                 (Linear)    (Quad)   (Total)
    R1        2.09856   0.00065   0.00377  -0.00130   0.00247   2.10103
    R2        2.09856   0.00065   0.00377  -0.00130   0.00247   2.10103
    R3        2.26110   0.01769   0.00000   0.00000   0.00000   2.26110
    A1        2.01427  -0.00108  -0.00519  -0.00315  -0.00834   2.00593
    A2        2.13446   0.00054   0.00260   0.00157   0.00417   2.13863
    A3        2.13446   0.00054   0.00259   0.00158   0.00417   2.13863
    D1        3.14159   0.00000   0.00000   0.00000   0.00000   3.14159
         Item               Value     Threshold  Converged?
 Maximum Force            0.001079     0.000450     NO 
 RMS     Force            0.000656     0.000300     NO 
 Maximum Displacement     0.004359     0.001800     NO 
 RMS     Displacement     0.003577     0.001200     NO 
 Predicted change in Energy=-8.147508D-06
 GradGradGradGradGradGradGradGradGradGradGradGradGradGradGradGradGradGrad

                          Input orientation:                          
 ---------------------------------------------------------------------
 Center     Atomic      Atomic             Coordinates (Angstroms)
 Number     Number       Type             X           Y           Z
 ---------------------------------------------------------------------
      1          6           0        0.000001    0.537245    0.000000
      2          1           0        0.937344    1.135184    0.000000
      3          1           0       -0.937339    1.135190    0.000000
      4          8           0       -0.000002   -0.659275    0.000000
 ---------------------------------------------------------------------
                    Distance matrix (angstroms):
                    1          2          3          4
     1  C    0.000000
     2  H    1.111820   0.000000
     3  H    1.111820   1.874683   0.000000
     4  O    1.196520   2.024525   2.024525   0.000000
 Stoichiometry    CH2O
 Framework group  CS[SG(CH2O)]
 Deg. of freedom     5
 Full point group                 CS      NOp   2
 Largest Abelian subgroup         CS      NOp   2
 Largest concise Abelian subgroup C1      NOp   1
                         Standard orientation:                         
 ---------------------------------------------------------------------
 Center     Atomic      Atomic             Coordinates (Angstroms)
 Number     Number       Type             X           Y           Z
 ---------------------------------------------------------------------
      1          6           0        0.000000   -0.523517    0.000000
      2          1           0       -0.937342   -1.121458    0.000000
      3          1           0        0.937341   -1.121459    0.000000
      4          8           0        0.000000    0.673003    0.000000
 ---------------------------------------------------------------------
 Rotational constants (GHZ):    285.3687873     39.1645957     34.4382235
 Standard basis: 6-31G(d) (6D, 7F)
 There are    26 symmetry adapted cartesian basis functions of A'  symmetry.
 There are     8 symmetry adapted cartesian basis functions of A"  symmetry.
 There are    26 symmetry adapted basis functions of A'  symmetry.
 There are     8 symmetry adapted basis functions of A"  symmetry.
    34 basis functions,    64 primitive gaussians,    34 cartesian basis functions
     8 alpha electrons        8 beta electrons
       nuclear repulsion energy        31.4045327778 Hartrees.
 NAtoms=    4 NActive=    4 NUniq=    4 SFac= 1.00D+00 NAtFMM=   60 NAOKFM=F Big=F
 Integral buffers will be    131072 words long.
 Raffenetti 2 integral format.
 Two-electron integral symmetry is turned on.
 One-electron integrals computed using PRISM.
 NBasis=    34 RedAO= T EigKep=  1.25D-02  NBF=    26     8
 NBsUse=    34 1.00D-06 EigRej= -1.00D+00 NBFU=    26     8
 Initial guess from the checkpoint file:  "HCOH-C-O.chk"
 B after Tr=     0.000000    0.000000    0.000000
         Rot=    1.000000    0.000000    0.000000    0.000000 Ang=   0.00 deg.
 Initial guess orbital symmetries:
       Occupied  (A') (A') (A') (A') (A') (A') (A") (A')
       Virtual   (A') (A') (A') (A') (A') (A') (A') (A') (A') (A')
                 (A') (A') (A') (A') (A') (A') (A') (A') (A') (A")
                 (A") (A") (A") (A") (A") (A")
 Keep R1 ints in memory in symmetry-blocked form, NReq=1061604.
 Requested convergence on RMS density matrix=1.00D-08 within 128 cycles.
 Requested convergence on MAX density matrix=1.00D-06.
 Requested convergence on             energy=1.00D-06.
 No special actions if energy rises.
 SCF Done:  E(RB3LYP) =  -114.500314106     A.U. after    7 cycles
            NFock=  7  Conv=0.94D-08     -V/T= 2.0086
 Calling FoFJK, ICntrl=      2127 FMM=F ISym2X=1 I1Cent= 0 IOpClX= 0 NMat=1 NMatS=1 NMatT=0.
 ***** Axes restored to original set *****
 -------------------------------------------------------------------
 Center     Atomic                   Forces (Hartrees/Bohr)
 Number     Number              X              Y              Z
 -------------------------------------------------------------------
      1        6           0.000000142    0.017054350    0.000000000
      2        1          -0.000009119   -0.000010601    0.000000000
      3        1           0.000009098   -0.000010691    0.000000000
      4        8          -0.000000121   -0.017033059    0.000000000
 -------------------------------------------------------------------
 Cartesian Forces:  Max     0.017054350 RMS     0.006958067

 GradGradGradGradGradGradGradGradGradGradGradGradGradGradGradGradGradGrad
 Berny optimization.
 Using GEDIIS/GDIIS optimizer.
 FormGI is forming the generalized inverse of G from B-inverse, IUseBI=4.
 Internal  Forces:  Max     0.017033059 RMS     0.006437896
 Search for a local minimum.
 Step number   3 out of a maximum of   20 on scan point     1 out of     7
 All quantities printed in internal units (Hartrees-Bohrs-Radians)
 Mixed Optimization -- En-DIIS/RFO-DIIS
 Swapping is turned off.
 Update second derivatives using D2CorX and points    1    2    3
 DE= -8.28D-06 DEPred=-8.15D-06 R= 1.02D+00
 TightC=F SS=  1.41D+00  RLast= 1.08D-02 DXNew= 5.0454D-01 3.2385D-02
 Trust test= 1.02D+00 RLast= 1.08D-02 DXMaxT set to 3.00D-01
 The second derivative matrix:
                          R1        R2        R3        A1        A2
           R1           0.33412
           R2          -0.00295   0.33412
           R3           0.05310   0.05309   1.09659
           A1           0.01266   0.01266  -0.03114   0.14505
           A2          -0.00633  -0.00633   0.01557   0.00748   0.15626
           A3          -0.00633  -0.00633   0.01557   0.00747  -0.00374
           D1           0.00000   0.00000   0.00000   0.00000   0.00000
                          A3        D1
           A3           0.15627
           D1           0.00000   0.04383
 ITU=  1  1  0
     Eigenvalues ---    0.04383   0.13512   0.16000   0.33362   0.33707
     Eigenvalues --- 1000.000001000.00000
 En-DIIS/RFO-DIIS IScMMF=        0 using points:     3    2
 RFO step:  Lambda=-9.17534877D-06.
 DidBck=F Rises=F RFO-DIIS coefs:    0.99248    0.00752
 Iteration  1 RMS(Cart)=  0.00002578 RMS(Int)=  0.00000000
 Iteration  2 RMS(Cart)=  0.00000000 RMS(Int)=  0.00000000
 Iteration  1 RMS(Cart)=  0.00000000 RMS(Int)=  0.00000000
 ClnCor:  largest displacement from symmetrization is 1.42D-15 for atom     2.
 Variable       Old X    -DE/DX   Delta X   Delta X   Delta X     New X
                                 (Linear)    (Quad)   (Total)
    R1        2.10103  -0.00001  -0.00002  -0.00002  -0.00004   2.10099
    R2        2.10103  -0.00001  -0.00002  -0.00002  -0.00004   2.10099
    R3        2.26110   0.01703   0.00000   0.00000   0.00000   2.26110
    A1        2.00593   0.00001   0.00006  -0.00001   0.00005   2.00598
    A2        2.13863   0.00000  -0.00003   0.00001  -0.00002   2.13860
    A3        2.13863   0.00000  -0.00003   0.00001  -0.00003   2.13860
    D1        3.14159   0.00000   0.00000   0.00000   0.00000   3.14159
         Item               Value     Threshold  Converged?
 Maximum Force            0.000013     0.000450     YES
 RMS     Force            0.000008     0.000300     YES
 Maximum Displacement     0.000034     0.001800     YES
 RMS     Displacement     0.000026     0.001200     YES
 Predicted change in Energy=-7.925167D-10
 Optimization completed.
    -- Stationary point found.
                           ----------------------------
                           !   Optimized Parameters   !
                           ! (Angstroms and Degrees)  !
 --------------------------                            --------------------------
 ! Name  Definition              Value          Derivative Info.                !
 --------------------------------------------------------------------------------
 ! R1    R(1,2)                  1.1118         -DE/DX =    0.0                 !
 ! R2    R(1,3)                  1.1118         -DE/DX =    0.0                 !
 ! R3    R(1,4)                  1.1965         -DE/DX =    0.017               !
 ! A1    A(2,1,3)              114.9314         -DE/DX =    0.0                 !
 ! A2    A(2,1,4)              122.5343         -DE/DX =    0.0                 !
 ! A3    A(3,1,4)              122.5343         -DE/DX =    0.0                 !
 ! D1    D(2,1,4,3)            180.0            -DE/DX =    0.0                 !
 --------------------------------------------------------------------------------
 Iteration  1 RMS(Cart)=  0.00309279 RMS(Int)=  0.00000000
 Iteration  2 RMS(Cart)=  0.00000000 RMS(Int)=  0.00000000
 Iteration  1 RMS(Cart)=  0.00000000 RMS(Int)=  0.00000000
 GradGradGradGradGradGradGradGradGradGradGradGradGradGradGradGradGradGrad

                          Input orientation:                          
 ---------------------------------------------------------------------
 Center     Atomic      Atomic             Coordinates (Angstroms)
 Number     Number       Type             X           Y           Z
 ---------------------------------------------------------------------
      1          6           0        0.000001    0.538513    0.000000
      2          1           0        0.937339    1.136417    0.000000
      3          1           0       -0.937335    1.136422    0.000000
      4          8           0       -0.000002   -0.663007    0.000000
 ---------------------------------------------------------------------
                    Distance matrix (angstroms):
                    1          2          3          4
     1  C    0.000000
     2  H    1.111797   0.000000
     3  H    1.111797   1.874674   0.000000
     4  O    1.201520   2.028925   2.028924   0.000000
 Stoichiometry    CH2O
 Framework group  CS[SG(CH2O)]
 Deg. of freedom     5
 Full point group                 CS      NOp   2
 Largest Abelian subgroup         CS      NOp   2
 Largest concise Abelian subgroup C1      NOp   1
                         Standard orientation:                         
 ---------------------------------------------------------------------
 Center     Atomic      Atomic             Coordinates (Angstroms)
 Number     Number       Type             X           Y           Z
 ---------------------------------------------------------------------
      1          6           0        0.000000   -0.526022    0.000000
      2          1           0       -0.937337   -1.123928    0.000000
      3          1           0        0.937337   -1.123928    0.000000
      4          8           0        0.000000    0.675498    0.000000
 ---------------------------------------------------------------------
 Rotational constants (GHZ):    285.3715468     38.8759210     34.2148600
 Standard basis: 6-31G(d) (6D, 7F)
 There are    26 symmetry adapted cartesian basis functions of A'  symmetry.
 There are     8 symmetry adapted cartesian basis functions of A"  symmetry.
 There are    26 symmetry adapted basis functions of A'  symmetry.
 There are     8 symmetry adapted basis functions of A"  symmetry.
    34 basis functions,    64 primitive gaussians,    34 cartesian basis functions
     8 alpha electrons        8 beta electrons
       nuclear repulsion energy        31.3072424921 Hartrees.
 NAtoms=    4 NActive=    4 NUniq=    4 SFac= 1.00D+00 NAtFMM=   60 NAOKFM=F Big=F
 Integral buffers will be    131072 words long.
 Raffenetti 2 integral format.
 Two-electron integral symmetry is turned on.
 One-electron integrals computed using PRISM.
 NBasis=    34 RedAO= T EigKep=  1.27D-02  NBF=    26     8
 NBsUse=    34 1.00D-06 EigRej= -1.00D+00 NBFU=    26     8
 Initial guess from the checkpoint file:  "HCOH-C-O.chk"
 B after Tr=     0.000000    0.000000    0.000000
         Rot=    1.000000    0.000000    0.000000    0.000000 Ang=   0.00 deg.
 Initial guess orbital symmetries:
       Occupied  (A') (A') (A') (A') (A') (A') (A") (A')
       Virtual   (A') (A') (A') (A') (A') (A') (A') (A') (A') (A')
                 (A') (A') (A') (A') (A') (A') (A') (A') (A') (A")
                 (A") (A") (A") (A") (A") (A")
 ExpMin= 1.61D-01 ExpMax= 5.48D+03 ExpMxC= 8.25D+02 IAcc=1 IRadAn=         1 AccDes= 0.00D+00
 Harris functional with IExCor=  402 and IRadAn=       1 diagonalized for initial guess.
 HarFok:  IExCor=  402 AccDes= 0.00D+00 IRadAn=         1 IDoV= 1 UseB2=F ITyADJ=14
 ICtDFT=  3500011 ScaDFX=  1.000000  1.000000  1.000000  1.000000
 FoFCou: FMM=F IPFlag=           0 FMFlag=      100000 FMFlg1=           0
         NFxFlg=           0 DoJE=T BraDBF=F KetDBF=T FulRan=T
         wScrn=  0.000000 ICntrl=     500 IOpCl=  0 I1Cent=   200000004 NGrid=           0
         NMat0=    1 NMatS0=      1 NMatT0=    0 NMatD0=    1 NMtDS0=    0 NMtDT0=    0
 Petite list used in FoFCou.
 Keep R1 ints in memory in symmetry-blocked form, NReq=1061604.
 Requested convergence on RMS density matrix=1.00D-08 within 128 cycles.
 Requested convergence on MAX density matrix=1.00D-06.
 Requested convergence on             energy=1.00D-06.
 No special actions if energy rises.
 Integral accuracy reduced to 1.0D-05 until final iterations.
 Initial convergence to 1.0D-05 achieved.  Increase integral accuracy.
 SCF Done:  E(RB3LYP) =  -114.500432612     A.U. after   10 cycles
            NFock= 10  Conv=0.19D-08     -V/T= 2.0088
 Calling FoFJK, ICntrl=      2127 FMM=F ISym2X=1 I1Cent= 0 IOpClX= 0 NMat=1 NMatS=1 NMatT=0.
 ***** Axes restored to original set *****
 -------------------------------------------------------------------
 Center     Atomic                   Forces (Hartrees/Bohr)
 Number     Number              X              Y              Z
 -------------------------------------------------------------------
      1        6           0.000000010    0.008901905    0.000000000
      2        1          -0.000180261   -0.000403970    0.000000000
      3        1           0.000180255   -0.000403947    0.000000000
      4        8          -0.000000005   -0.008093988    0.000000000
 -------------------------------------------------------------------
 Cartesian Forces:  Max     0.008901905 RMS     0.003477881

 GradGradGradGradGradGradGradGradGradGradGradGradGradGradGradGradGradGrad
 Berny optimization.
 FormGI is forming the generalized inverse of G from B-inverse, IUseBI=4.
 Internal  Forces:  Max     0.008093988 RMS     0.003069666
 Search for a local minimum.
 Step number   1 out of a maximum of   20 on scan point     2 out of     7
 All quantities printed in internal units (Hartrees-Bohrs-Radians)
 Mixed Optimization -- RFO/linear search
 Second derivative matrix not updated -- first step.
 The second derivative matrix:
                          R1        R2        R3        A1        A2
           R1           0.33412
           R2          -0.00295   0.33412
           R3           0.05310   0.05309   1.09659
           A1           0.01266   0.01266  -0.03114   0.14505
           A2          -0.00633  -0.00633   0.01557   0.00748   0.15626
           A3          -0.00633  -0.00633   0.01557   0.00747  -0.00374
           D1           0.00000   0.00000   0.00000   0.00000   0.00000
                          A3        D1
           A3           0.15627
           D1           0.00000   0.04383
 ITU=  0
     Eigenvalues ---    0.04383   0.13512   0.16000   0.33362   0.33707
     Eigenvalues --- 1000.000001000.00000
 RFO step:  Lambda=-2.32758369D-06 EMin= 4.38343062D-02
 Linear search not attempted -- first point.
 Iteration  1 RMS(Cart)=  0.00119259 RMS(Int)=  0.00000127
 Iteration  2 RMS(Cart)=  0.00000134 RMS(Int)=  0.00000000
 Iteration  3 RMS(Cart)=  0.00000000 RMS(Int)=  0.00000000
 Iteration  1 RMS(Cart)=  0.00000000 RMS(Int)=  0.00000000
 ClnCor:  largest displacement from symmetrization is 1.26D-15 for atom     2.
 Variable       Old X    -DE/DX   Delta X   Delta X   Delta X     New X
                                 (Linear)    (Quad)   (Total)
    R1        2.10099  -0.00037   0.00000  -0.00127  -0.00127   2.09972
    R2        2.10099  -0.00037   0.00000  -0.00127  -0.00127   2.09972
    R3        2.27054   0.00809   0.00000   0.00000   0.00000   2.27054
    A1        2.00598   0.00034   0.00000   0.00271   0.00271   2.00869
    A2        2.13860  -0.00017   0.00000  -0.00136  -0.00136   2.13725
    A3        2.13860  -0.00017   0.00000  -0.00136  -0.00136   2.13725
    D1        3.14159   0.00000   0.00000   0.00000   0.00000   3.14159
         Item               Value     Threshold  Converged?
 Maximum Force            0.000369     0.000450     YES
 RMS     Force            0.000273     0.000300     YES
 Maximum Displacement     0.001544     0.001800     YES
 RMS     Displacement     0.001192     0.001200     YES
 Predicted change in Energy=-1.163792D-06
 Optimization completed.
    -- Stationary point found.
                           ----------------------------
                           !   Optimized Parameters   !
                           ! (Angstroms and Degrees)  !
 --------------------------                            --------------------------
 ! Name  Definition              Value          Derivative Info.                !
 --------------------------------------------------------------------------------
 ! R1    R(1,2)                  1.1118         -DE/DX =   -0.0004              !
 ! R2    R(1,3)                  1.1118         -DE/DX =   -0.0004              !
 ! R3    R(1,4)                  1.2015         -DE/DX =    0.0081              !
 ! A1    A(2,1,3)              114.9342         -DE/DX =    0.0003              !
 ! A2    A(2,1,4)              122.5329         -DE/DX =   -0.0002              !
 ! A3    A(3,1,4)              122.5329         -DE/DX =   -0.0002              !
 ! D1    D(2,1,4,3)            180.0            -DE/DX =    0.0                 !
 --------------------------------------------------------------------------------
 Iteration  1 RMS(Cart)=  0.00309279 RMS(Int)=  0.00000000
 Iteration  2 RMS(Cart)=  0.00000000 RMS(Int)=  0.00000000
 Iteration  1 RMS(Cart)=  0.00000000 RMS(Int)=  0.00000000
 GradGradGradGradGradGradGradGradGradGradGradGradGradGradGradGradGradGrad

                          Input orientation:                          
 ---------------------------------------------------------------------
 Center     Atomic      Atomic             Coordinates (Angstroms)
 Number     Number       Type             X           Y           Z
 ---------------------------------------------------------------------
      1          6           0        0.000001    0.540580    0.000000
      2          1           0        0.937582    1.136850    0.000000
      3          1           0       -0.937578    1.136855    0.000000
      4          8           0       -0.000002   -0.665940    0.000000
 ---------------------------------------------------------------------
                    Distance matrix (angstroms):
                    1          2          3          4
     1  C    0.000000
     2  H    1.111124   0.000000
     3  H    1.111124   1.875160   0.000000
     4  O    1.206520   2.032023   2.032023   0.000000
 Stoichiometry    CH2O
 Framework group  CS[SG(CH2O)]
 Deg. of freedom     5
 Full point group                 CS      NOp   2
 Largest Abelian subgroup         CS      NOp   2
 Largest concise Abelian subgroup C1      NOp   1
                         Standard orientation:                         
 ---------------------------------------------------------------------
 Center     Atomic      Atomic             Coordinates (Angstroms)
 Number     Number       Type             X           Y           Z
 ---------------------------------------------------------------------
      1          6           0        0.000000   -0.528726    0.000000
      2          1           0       -0.937580   -1.124998    0.000000
      3          1           0        0.937580   -1.124999    0.000000
      4          8           0        0.000000    0.677794    0.000000
 ---------------------------------------------------------------------
 Rotational constants (GHZ):    285.2234713     38.6131648     34.0090641
 Standard basis: 6-31G(d) (6D, 7F)
 There are    26 symmetry adapted cartesian basis functions of A'  symmetry.
 There are     8 symmetry adapted cartesian basis functions of A"  symmetry.
 There are    26 symmetry adapted basis functions of A'  symmetry.
 There are     8 symmetry adapted basis functions of A"  symmetry.
    34 basis functions,    64 primitive gaussians,    34 cartesian basis functions
     8 alpha electrons        8 beta electrons
       nuclear repulsion energy        31.2166532293 Hartrees.
 NAtoms=    4 NActive=    4 NUniq=    4 SFac= 1.00D+00 NAtFMM=   60 NAOKFM=F Big=F
 Integral buffers will be    131072 words long.
 Raffenetti 2 integral format.
 Two-electron integral symmetry is turned on.
 One-electron integrals computed using PRISM.
 NBasis=    34 RedAO= T EigKep=  1.28D-02  NBF=    26     8
 NBsUse=    34 1.00D-06 EigRej= -1.00D+00 NBFU=    26     8
 Initial guess from the checkpoint file:  "HCOH-C-O.chk"
 B after Tr=     0.000000    0.000000    0.000000
         Rot=    1.000000    0.000000    0.000000    0.000000 Ang=   0.00 deg.
 Initial guess orbital symmetries:
       Occupied  (A') (A') (A') (A') (A') (A') (A") (A')
       Virtual   (A') (A') (A') (A') (A') (A') (A') (A') (A') (A')
                 (A') (A') (A') (A') (A') (A') (A') (A') (A') (A")
                 (A") (A") (A") (A") (A") (A")
 ExpMin= 1.61D-01 ExpMax= 5.48D+03 ExpMxC= 8.25D+02 IAcc=1 IRadAn=         1 AccDes= 0.00D+00
 Harris functional with IExCor=  402 and IRadAn=       1 diagonalized for initial guess.
 HarFok:  IExCor=  402 AccDes= 0.00D+00 IRadAn=         1 IDoV= 1 UseB2=F ITyADJ=14
 ICtDFT=  3500011 ScaDFX=  1.000000  1.000000  1.000000  1.000000
 FoFCou: FMM=F IPFlag=           0 FMFlag=      100000 FMFlg1=           0
         NFxFlg=           0 DoJE=T BraDBF=F KetDBF=T FulRan=T
         wScrn=  0.000000 ICntrl=     500 IOpCl=  0 I1Cent=   200000004 NGrid=           0
         NMat0=    1 NMatS0=      1 NMatT0=    0 NMatD0=    1 NMtDS0=    0 NMtDT0=    0
 Petite list used in FoFCou.
 Keep R1 ints in memory in symmetry-blocked form, NReq=1061604.
 Requested convergence on RMS density matrix=1.00D-08 within 128 cycles.
 Requested convergence on MAX density matrix=1.00D-06.
 Requested convergence on             energy=1.00D-06.
 No special actions if energy rises.
 Integral accuracy reduced to 1.0D-05 until final iterations.
 Initial convergence to 1.0D-05 achieved.  Increase integral accuracy.
 SCF Done:  E(RB3LYP) =  -114.500471449     A.U. after   10 cycles
            NFock= 10  Conv=0.20D-08     -V/T= 2.0090
 Calling FoFJK, ICntrl=      2127 FMM=F ISym2X=1 I1Cent= 0 IOpClX= 0 NMat=1 NMatS=1 NMatT=0.
 ***** Axes restored to original set *****
 -------------------------------------------------------------------
 Center     Atomic                   Forces (Hartrees/Bohr)
 Number     Number              X              Y              Z
 -------------------------------------------------------------------
      1        6           0.000000020    0.000487539    0.000000000
      2        1          -0.000184375   -0.000403005    0.000000000
      3        1           0.000184378   -0.000403039    0.000000000
      4        8          -0.000000023    0.000318505    0.000000000
 -------------------------------------------------------------------
 Cartesian Forces:  Max     0.000487539 RMS     0.000246979

 GradGradGradGradGradGradGradGradGradGradGradGradGradGradGradGradGradGrad
 Berny optimization.
 FormGI is forming the generalized inverse of G from B-inverse, IUseBI=4.
 Internal  Forces:  Max     0.000371867 RMS     0.000280025
 Search for a local minimum.
 Step number   1 out of a maximum of   20 on scan point     3 out of     7
 All quantities printed in internal units (Hartrees-Bohrs-Radians)
 Mixed Optimization -- RFO/linear search
 Second derivative matrix not updated -- first step.
 The second derivative matrix:
                          R1        R2        R3        A1        A2
           R1           0.33412
           R2          -0.00295   0.33412
           R3           0.05310   0.05309   1.09659
           A1           0.01266   0.01266  -0.03114   0.14505
           A2          -0.00633  -0.00633   0.01557   0.00748   0.15626
           A3          -0.00633  -0.00633   0.01557   0.00747  -0.00374
           D1           0.00000   0.00000   0.00000   0.00000   0.00000
                          A3        D1
           A3           0.15627
           D1           0.00000   0.04383
 ITU=  0
     Eigenvalues ---    0.04383   0.13512   0.16000   0.33362   0.33707
     Eigenvalues --- 1000.000001000.00000
 RFO step:  Lambda=-2.31101362D-06 EMin= 4.38343062D-02
 Linear search not attempted -- first point.
 Iteration  1 RMS(Cart)=  0.00118242 RMS(Int)=  0.00000125
 Iteration  2 RMS(Cart)=  0.00000132 RMS(Int)=  0.00000000
 Iteration  3 RMS(Cart)=  0.00000000 RMS(Int)=  0.00000000
 Iteration  1 RMS(Cart)=  0.00000000 RMS(Int)=  0.00000000
 ClnCor:  largest displacement from symmetrization is 1.46D-14 for atom     1.
 Variable       Old X    -DE/DX   Delta X   Delta X   Delta X     New X
                                 (Linear)    (Quad)   (Total)
    R1        2.09972  -0.00037   0.00000  -0.00128  -0.00128   2.09844
    R2        2.09972  -0.00037   0.00000  -0.00128  -0.00128   2.09844
    R3        2.27999  -0.00032   0.00000   0.00000   0.00000   2.27999
    A1        2.00869   0.00034   0.00000   0.00269   0.00269   2.01138
    A2        2.13725  -0.00017   0.00000  -0.00134  -0.00134   2.13590
    A3        2.13725  -0.00017   0.00000  -0.00134  -0.00134   2.13590
    D1        3.14159   0.00000   0.00000   0.00000   0.00000   3.14159
         Item               Value     Threshold  Converged?
 Maximum Force            0.000372     0.000450     YES
 RMS     Force            0.000273     0.000300     YES
 Maximum Displacement     0.001533     0.001800     YES
 RMS     Displacement     0.001182     0.001200     YES
 Predicted change in Energy=-1.155507D-06
 Optimization completed.
    -- Stationary point found.
                           ----------------------------
                           !   Optimized Parameters   !
                           ! (Angstroms and Degrees)  !
 --------------------------                            --------------------------
 ! Name  Definition              Value          Derivative Info.                !
 --------------------------------------------------------------------------------
 ! R1    R(1,2)                  1.1111         -DE/DX =   -0.0004              !
 ! R2    R(1,3)                  1.1111         -DE/DX =   -0.0004              !
 ! R3    R(1,4)                  1.2065         -DE/DX =   -0.0003              !
 ! A1    A(2,1,3)              115.0897         -DE/DX =    0.0003              !
 ! A2    A(2,1,4)              122.4551         -DE/DX =   -0.0002              !
 ! A3    A(3,1,4)              122.4551         -DE/DX =   -0.0002              !
 ! D1    D(2,1,4,3)            180.0            -DE/DX =    0.0                 !
 --------------------------------------------------------------------------------
 Iteration  1 RMS(Cart)=  0.00309279 RMS(Int)=  0.00000000
 Iteration  2 RMS(Cart)=  0.00000000 RMS(Int)=  0.00000000
 Iteration  1 RMS(Cart)=  0.00000000 RMS(Int)=  0.00000000
 GradGradGradGradGradGradGradGradGradGradGradGradGradGradGradGradGradGrad

                          Input orientation:                          
 ---------------------------------------------------------------------
 Center     Atomic      Atomic             Coordinates (Angstroms)
 Number     Number       Type             X           Y           Z
 ---------------------------------------------------------------------
      1          6           0        0.000001    0.542641    0.000000
      2          1           0        0.937812    1.137289    0.000000
      3          1           0       -0.937808    1.137294    0.000000
      4          8           0       -0.000002   -0.668879    0.000000
 ---------------------------------------------------------------------
                    Distance matrix (angstroms):
                    1          2          3          4
     1  C    0.000000
     2  H    1.110449   0.000000
     3  H    1.110449   1.875620   0.000000
     4  O    1.211520   2.035126   2.035126   0.000000
 Stoichiometry    CH2O
 Framework group  CS[SG(CH2O)]
 Deg. of freedom     5
 Full point group                 CS      NOp   2
 Largest Abelian subgroup         CS      NOp   2
 Largest concise Abelian subgroup C1      NOp   1
                         Standard orientation:                         
 ---------------------------------------------------------------------
 Center     Atomic      Atomic             Coordinates (Angstroms)
 Number     Number       Type             X           Y           Z
 ---------------------------------------------------------------------
      1          6           0        0.000000   -0.531429    0.000000
      2          1           0       -0.937810   -1.126079    0.000000
      3          1           0        0.937810   -1.126079    0.000000
      4          8           0        0.000000    0.680091    0.000000
 ---------------------------------------------------------------------
 Rotational constants (GHZ):    285.0835748     38.3527722     33.8049372
 Standard basis: 6-31G(d) (6D, 7F)
 There are    26 symmetry adapted cartesian basis functions of A'  symmetry.
 There are     8 symmetry adapted cartesian basis functions of A"  symmetry.
 There are    26 symmetry adapted basis functions of A'  symmetry.
 There are     8 symmetry adapted basis functions of A"  symmetry.
    34 basis functions,    64 primitive gaussians,    34 cartesian basis functions
     8 alpha electrons        8 beta electrons
       nuclear repulsion energy        31.1268237432 Hartrees.
 NAtoms=    4 NActive=    4 NUniq=    4 SFac= 1.00D+00 NAtFMM=   60 NAOKFM=F Big=F
 Integral buffers will be    131072 words long.
 Raffenetti 2 integral format.
 Two-electron integral symmetry is turned on.
 One-electron integrals computed using PRISM.
 NBasis=    34 RedAO= T EigKep=  1.29D-02  NBF=    26     8
 NBsUse=    34 1.00D-06 EigRej= -1.00D+00 NBFU=    26     8
 Initial guess from the checkpoint file:  "HCOH-C-O.chk"
 B after Tr=     0.000000    0.000000    0.000000
         Rot=    1.000000    0.000000    0.000000    0.000000 Ang=   0.00 deg.
 Initial guess orbital symmetries:
       Occupied  (A') (A') (A') (A') (A') (A') (A") (A')
       Virtual   (A') (A') (A') (A') (A') (A') (A') (A') (A') (A')
                 (A') (A') (A') (A') (A') (A') (A') (A') (A') (A")
                 (A") (A") (A") (A") (A") (A")
 ExpMin= 1.61D-01 ExpMax= 5.48D+03 ExpMxC= 8.25D+02 IAcc=1 IRadAn=         1 AccDes= 0.00D+00
 Harris functional with IExCor=  402 and IRadAn=       1 diagonalized for initial guess.
 HarFok:  IExCor=  402 AccDes= 0.00D+00 IRadAn=         1 IDoV= 1 UseB2=F ITyADJ=14
 ICtDFT=  3500011 ScaDFX=  1.000000  1.000000  1.000000  1.000000
 FoFCou: FMM=F IPFlag=           0 FMFlag=      100000 FMFlg1=           0
         NFxFlg=           0 DoJE=T BraDBF=F KetDBF=T FulRan=T
         wScrn=  0.000000 ICntrl=     500 IOpCl=  0 I1Cent=   200000004 NGrid=           0
         NMat0=    1 NMatS0=      1 NMatT0=    0 NMatD0=    1 NMtDS0=    0 NMtDT0=    0
 Petite list used in FoFCou.
 Keep R1 ints in memory in symmetry-blocked form, NReq=1061604.
 Requested convergence on RMS density matrix=1.00D-08 within 128 cycles.
 Requested convergence on MAX density matrix=1.00D-06.
 Requested convergence on             energy=1.00D-06.
 No special actions if energy rises.
 Integral accuracy reduced to 1.0D-05 until final iterations.
 Initial convergence to 1.0D-05 achieved.  Increase integral accuracy.
 SCF Done:  E(RB3LYP) =  -114.500432089     A.U. after   10 cycles
            NFock= 10  Conv=0.19D-08     -V/T= 2.0091
 Calling FoFJK, ICntrl=      2127 FMM=F ISym2X=1 I1Cent= 0 IOpClX= 0 NMat=1 NMatS=1 NMatT=0.
 ***** Axes restored to original set *****
 -------------------------------------------------------------------
 Center     Atomic                   Forces (Hartrees/Bohr)
 Number     Number              X              Y              Z
 -------------------------------------------------------------------
      1        6          -0.000000011   -0.007657301    0.000000000
      2        1          -0.000178539   -0.000398777    0.000000000
      3        1           0.000178542   -0.000398800    0.000000000
      4        8           0.000000007    0.008454878    0.000000000
 -------------------------------------------------------------------
 Cartesian Forces:  Max     0.008454878 RMS     0.003297740

 GradGradGradGradGradGradGradGradGradGradGradGradGradGradGradGradGradGrad
 Berny optimization.
 FormGI is forming the generalized inverse of G from B-inverse, IUseBI=4.
 Internal  Forces:  Max     0.008454878 RMS     0.003205380
 Search for a local minimum.
 Step number   1 out of a maximum of   20 on scan point     4 out of     7
 All quantities printed in internal units (Hartrees-Bohrs-Radians)
 Mixed Optimization -- RFO/linear search
 Second derivative matrix not updated -- first step.
 The second derivative matrix:
                          R1        R2        R3        A1        A2
           R1           0.33412
           R2          -0.00295   0.33412
           R3           0.05310   0.05309   1.09659
           A1           0.01266   0.01266  -0.03114   0.14505
           A2          -0.00633  -0.00633   0.01557   0.00748   0.15626
           A3          -0.00633  -0.00633   0.01557   0.00747  -0.00374
           D1           0.00000   0.00000   0.00000   0.00000   0.00000
                          A3        D1
           A3           0.15627
           D1           0.00000   0.04383
 ITU=  0
     Eigenvalues ---    0.04383   0.13512   0.16000   0.33362   0.33707
     Eigenvalues --- 1000.000001000.00000
 RFO step:  Lambda=-2.27185128D-06 EMin= 4.38343062D-02
 Linear search not attempted -- first point.
 Iteration  1 RMS(Cart)=  0.00117705 RMS(Int)=  0.00000124
 Iteration  2 RMS(Cart)=  0.00000130 RMS(Int)=  0.00000000
 Iteration  3 RMS(Cart)=  0.00000000 RMS(Int)=  0.00000000
 Iteration  1 RMS(Cart)=  0.00000000 RMS(Int)=  0.00000000
 ClnCor:  largest displacement from symmetrization is 6.73D-15 for atom     1.
 Variable       Old X    -DE/DX   Delta X   Delta X   Delta X     New X
                                 (Linear)    (Quad)   (Total)
    R1        2.09844  -0.00036   0.00000  -0.00125  -0.00125   2.09719
    R2        2.09844  -0.00036   0.00000  -0.00125  -0.00125   2.09719
    R3        2.28944  -0.00845   0.00000   0.00000   0.00000   2.28944
    A1        2.01138   0.00034   0.00000   0.00268   0.00268   2.01407
    A2        2.13590  -0.00017   0.00000  -0.00134  -0.00134   2.13456
    A3        2.13590  -0.00017   0.00000  -0.00134  -0.00134   2.13456
    D1        3.14159   0.00000   0.00000   0.00000   0.00000   3.14159
         Item               Value     Threshold  Converged?
 Maximum Force            0.000364     0.000450     YES
 RMS     Force            0.000270     0.000300     YES
 Maximum Displacement     0.001524     0.001800     YES
 RMS     Displacement     0.001177     0.001200     YES
 Predicted change in Energy=-1.135926D-06
 Optimization completed.
    -- Stationary point found.
                           ----------------------------
                           !   Optimized Parameters   !
                           ! (Angstroms and Degrees)  !
 --------------------------                            --------------------------
 ! Name  Definition              Value          Derivative Info.                !
 --------------------------------------------------------------------------------
 ! R1    R(1,2)                  1.1104         -DE/DX =   -0.0004              !
 ! R2    R(1,3)                  1.1104         -DE/DX =   -0.0004              !
 ! R3    R(1,4)                  1.2115         -DE/DX =   -0.0085              !
 ! A1    A(2,1,3)              115.2438         -DE/DX =    0.0003              !
 ! A2    A(2,1,4)              122.3781         -DE/DX =   -0.0002              !
 ! A3    A(3,1,4)              122.3781         -DE/DX =   -0.0002              !
 ! D1    D(2,1,4,3)            180.0            -DE/DX =    0.0                 !
 --------------------------------------------------------------------------------
 Iteration  1 RMS(Cart)=  0.00309279 RMS(Int)=  0.00000000
 Iteration  2 RMS(Cart)=  0.00000000 RMS(Int)=  0.00000000
 Iteration  1 RMS(Cart)=  0.00000000 RMS(Int)=  0.00000000
 GradGradGradGradGradGradGradGradGradGradGradGradGradGradGradGradGradGrad

                          Input orientation:                          
 ---------------------------------------------------------------------
 Center     Atomic      Atomic             Coordinates (Angstroms)
 Number     Number       Type             X           Y           Z
 ---------------------------------------------------------------------
      1          6           0        0.000001    0.544698    0.000000
      2          1           0        0.938049    1.137732    0.000000
      3          1           0       -0.938044    1.137737    0.000000
      4          8           0       -0.000002   -0.671822    0.000000
 ---------------------------------------------------------------------
                    Distance matrix (angstroms):
                    1          2          3          4
     1  C    0.000000
     2  H    1.109785   0.000000
     3  H    1.109785   1.876092   0.000000
     4  O    1.216520   2.038241   2.038241   0.000000
 Stoichiometry    CH2O
 Framework group  CS[SG(CH2O)]
 Deg. of freedom     5
 Full point group                 CS      NOp   2
 Largest Abelian subgroup         CS      NOp   2
 Largest concise Abelian subgroup C1      NOp   1
                         Standard orientation:                         
 ---------------------------------------------------------------------
 Center     Atomic      Atomic             Coordinates (Angstroms)
 Number     Number       Type             X           Y           Z
 ---------------------------------------------------------------------
      1          6           0        0.000000   -0.534130    0.000000
      2          1           0       -0.938046   -1.127167    0.000000
      3          1           0        0.938046   -1.127167    0.000000
      4          8           0        0.000000    0.682390    0.000000
 ---------------------------------------------------------------------
 Rotational constants (GHZ):    284.9400908     38.0947362     33.6023137
 Standard basis: 6-31G(d) (6D, 7F)
 There are    26 symmetry adapted cartesian basis functions of A'  symmetry.
 There are     8 symmetry adapted cartesian basis functions of A"  symmetry.
 There are    26 symmetry adapted basis functions of A'  symmetry.
 There are     8 symmetry adapted basis functions of A"  symmetry.
    34 basis functions,    64 primitive gaussians,    34 cartesian basis functions
     8 alpha electrons        8 beta electrons
       nuclear repulsion energy        31.0376429207 Hartrees.
 NAtoms=    4 NActive=    4 NUniq=    4 SFac= 1.00D+00 NAtFMM=   60 NAOKFM=F Big=F
 Integral buffers will be    131072 words long.
 Raffenetti 2 integral format.
 Two-electron integral symmetry is turned on.
 One-electron integrals computed using PRISM.
 NBasis=    34 RedAO= T EigKep=  1.31D-02  NBF=    26     8
 NBsUse=    34 1.00D-06 EigRej= -1.00D+00 NBFU=    26     8
 Initial guess from the checkpoint file:  "HCOH-C-O.chk"
 B after Tr=     0.000000    0.000000    0.000000
         Rot=    1.000000    0.000000    0.000000    0.000000 Ang=   0.00 deg.
 Initial guess orbital symmetries:
       Occupied  (A') (A') (A') (A') (A') (A') (A") (A')
       Virtual   (A') (A') (A') (A') (A') (A') (A') (A') (A') (A')
                 (A') (A') (A') (A') (A') (A') (A') (A') (A') (A")
                 (A") (A") (A") (A") (A") (A")
 ExpMin= 1.61D-01 ExpMax= 5.48D+03 ExpMxC= 8.25D+02 IAcc=1 IRadAn=         1 AccDes= 0.00D+00
 Harris functional with IExCor=  402 and IRadAn=       1 diagonalized for initial guess.
 HarFok:  IExCor=  402 AccDes= 0.00D+00 IRadAn=         1 IDoV= 1 UseB2=F ITyADJ=14
 ICtDFT=  3500011 ScaDFX=  1.000000  1.000000  1.000000  1.000000
 FoFCou: FMM=F IPFlag=           0 FMFlag=      100000 FMFlg1=           0
         NFxFlg=           0 DoJE=T BraDBF=F KetDBF=T FulRan=T
         wScrn=  0.000000 ICntrl=     500 IOpCl=  0 I1Cent=   200000004 NGrid=           0
         NMat0=    1 NMatS0=      1 NMatT0=    0 NMatD0=    1 NMtDS0=    0 NMtDT0=    0
 Petite list used in FoFCou.
 Keep R1 ints in memory in symmetry-blocked form, NReq=1061604.
 Requested convergence on RMS density matrix=1.00D-08 within 128 cycles.
 Requested convergence on MAX density matrix=1.00D-06.
 Requested convergence on             energy=1.00D-06.
 No special actions if energy rises.
 Integral accuracy reduced to 1.0D-05 until final iterations.
 Initial convergence to 1.0D-05 achieved.  Increase integral accuracy.
 SCF Done:  E(RB3LYP) =  -114.500317080     A.U. after   10 cycles
            NFock= 10  Conv=0.19D-08     -V/T= 2.0093
 Calling FoFJK, ICntrl=      2127 FMM=F ISym2X=1 I1Cent= 0 IOpClX= 0 NMat=1 NMatS=1 NMatT=0.
 ***** Axes restored to original set *****
 -------------------------------------------------------------------
 Center     Atomic                   Forces (Hartrees/Bohr)
 Number     Number              X              Y              Z
 -------------------------------------------------------------------
      1        6          -0.000000029   -0.015535364    0.000000000
      2        1          -0.000172148   -0.000394386    0.000000000
      3        1           0.000172152   -0.000394412    0.000000000
      4        8           0.000000026    0.016324162    0.000000000
 -------------------------------------------------------------------
 Cartesian Forces:  Max     0.016324162 RMS     0.006507663

 GradGradGradGradGradGradGradGradGradGradGradGradGradGradGradGradGradGrad
 Berny optimization.
 FormGI is forming the generalized inverse of G from B-inverse, IUseBI=4.
 Internal  Forces:  Max     0.016324162 RMS     0.006174868
 Search for a local minimum.
 Step number   1 out of a maximum of   20 on scan point     5 out of     7
 All quantities printed in internal units (Hartrees-Bohrs-Radians)
 Mixed Optimization -- RFO/linear search
 Second derivative matrix not updated -- first step.
 The second derivative matrix:
                          R1        R2        R3        A1        A2
           R1           0.33412
           R2          -0.00295   0.33412
           R3           0.05310   0.05309   1.09659
           A1           0.01266   0.01266  -0.03114   0.14505
           A2          -0.00633  -0.00633   0.01557   0.00748   0.15626
           A3          -0.00633  -0.00633   0.01557   0.00747  -0.00374
           D1           0.00000   0.00000   0.00000   0.00000   0.00000
                          A3        D1
           A3           0.15627
           D1           0.00000   0.04383
 ITU=  0
     Eigenvalues ---    0.04383   0.13512   0.16000   0.33362   0.33707
     Eigenvalues --- 1000.000001000.00000
 RFO step:  Lambda=-2.23231285D-06 EMin= 4.38343062D-02
 Linear search not attempted -- first point.
 Iteration  1 RMS(Cart)=  0.00117207 RMS(Int)=  0.00000123
 Iteration  2 RMS(Cart)=  0.00000129 RMS(Int)=  0.00000000
 Iteration  3 RMS(Cart)=  0.00000000 RMS(Int)=  0.00000000
 Iteration  1 RMS(Cart)=  0.00000000 RMS(Int)=  0.00000000
 ClnCor:  largest displacement from symmetrization is 5.10D-15 for atom     1.
 Variable       Old X    -DE/DX   Delta X   Delta X   Delta X     New X
                                 (Linear)    (Quad)   (Total)
    R1        2.09719  -0.00036   0.00000  -0.00123  -0.00123   2.09596
    R2        2.09719  -0.00036   0.00000  -0.00123  -0.00123   2.09596
    R3        2.29889  -0.01632   0.00000   0.00000   0.00000   2.29889
    A1        2.01407   0.00034   0.00000   0.00268   0.00268   2.01675
    A2        2.13456  -0.00017   0.00000  -0.00134  -0.00134   2.13322
    A3        2.13456  -0.00017   0.00000  -0.00134  -0.00134   2.13322
    D1        3.14159   0.00000   0.00000   0.00000   0.00000   3.14159
         Item               Value     Threshold  Converged?
 Maximum Force            0.000356     0.000450     YES
 RMS     Force            0.000266     0.000300     YES
 Maximum Displacement     0.001516     0.001800     YES
 RMS     Displacement     0.001172     0.001200     YES
 Predicted change in Energy=-1.116156D-06
 Optimization completed.
    -- Stationary point found.
                           ----------------------------
                           !   Optimized Parameters   !
                           ! (Angstroms and Degrees)  !
 --------------------------                            --------------------------
 ! Name  Definition              Value          Derivative Info.                !
 --------------------------------------------------------------------------------
 ! R1    R(1,2)                  1.1098         -DE/DX =   -0.0004              !
 ! R2    R(1,3)                  1.1098         -DE/DX =   -0.0004              !
 ! R3    R(1,4)                  1.2165         -DE/DX =   -0.0163              !
 ! A1    A(2,1,3)              115.3975         -DE/DX =    0.0003              !
 ! A2    A(2,1,4)              122.3012         -DE/DX =   -0.0002              !
 ! A3    A(3,1,4)              122.3012         -DE/DX =   -0.0002              !
 ! D1    D(2,1,4,3)            180.0            -DE/DX =    0.0                 !
 --------------------------------------------------------------------------------
 Iteration  1 RMS(Cart)=  0.00309279 RMS(Int)=  0.00000000
 Iteration  2 RMS(Cart)=  0.00000000 RMS(Int)=  0.00000000
 Iteration  1 RMS(Cart)=  0.00000000 RMS(Int)=  0.00000000
 GradGradGradGradGradGradGradGradGradGradGradGradGradGradGradGradGradGrad

                          Input orientation:                          
 ---------------------------------------------------------------------
 Center     Atomic      Atomic             Coordinates (Angstroms)
 Number     Number       Type             X           Y           Z
 ---------------------------------------------------------------------
      1          6           0        0.000001    0.546750    0.000000
      2          1           0        0.938292    1.138180    0.000000
      3          1           0       -0.938287    1.138185    0.000000
      4          8           0       -0.000002   -0.674770    0.000000
 ---------------------------------------------------------------------
                    Distance matrix (angstroms):
                    1          2          3          4
     1  C    0.000000
     2  H    1.109135   0.000000
     3  H    1.109135   1.876579   0.000000
     4  O    1.221520   2.041368   2.041368   0.000000
 Stoichiometry    CH2O
 Framework group  CS[SG(CH2O)]
 Deg. of freedom     5
 Full point group                 CS      NOp   2
 Largest Abelian subgroup         CS      NOp   2
 Largest concise Abelian subgroup C1      NOp   1
                         Standard orientation:                         
 ---------------------------------------------------------------------
 Center     Atomic      Atomic             Coordinates (Angstroms)
 Number     Number       Type             X           Y           Z
 ---------------------------------------------------------------------
      1          6           0        0.000000   -0.536831    0.000000
      2          1           0       -0.938290   -1.128263    0.000000
      3          1           0        0.938289   -1.128263    0.000000
      4          8           0        0.000000    0.684689    0.000000
 ---------------------------------------------------------------------
 Rotational constants (GHZ):    284.7923554     37.8390341     33.4011755
 Standard basis: 6-31G(d) (6D, 7F)
 There are    26 symmetry adapted cartesian basis functions of A'  symmetry.
 There are     8 symmetry adapted cartesian basis functions of A"  symmetry.
 There are    26 symmetry adapted basis functions of A'  symmetry.
 There are     8 symmetry adapted basis functions of A"  symmetry.
    34 basis functions,    64 primitive gaussians,    34 cartesian basis functions
     8 alpha electrons        8 beta electrons
       nuclear repulsion energy        30.9490964590 Hartrees.
 NAtoms=    4 NActive=    4 NUniq=    4 SFac= 1.00D+00 NAtFMM=   60 NAOKFM=F Big=F
 Integral buffers will be    131072 words long.
 Raffenetti 2 integral format.
 Two-electron integral symmetry is turned on.
 One-electron integrals computed using PRISM.
 NBasis=    34 RedAO= T EigKep=  1.32D-02  NBF=    26     8
 NBsUse=    34 1.00D-06 EigRej= -1.00D+00 NBFU=    26     8
 Initial guess from the checkpoint file:  "HCOH-C-O.chk"
 B after Tr=     0.000000    0.000000    0.000000
         Rot=    1.000000    0.000000    0.000000    0.000000 Ang=   0.00 deg.
 Initial guess orbital symmetries:
       Occupied  (A') (A') (A') (A') (A') (A') (A") (A')
       Virtual   (A') (A') (A') (A') (A') (A') (A') (A') (A') (A')
                 (A') (A') (A') (A') (A') (A') (A') (A') (A') (A")
                 (A") (A") (A") (A") (A") (A")
 ExpMin= 1.61D-01 ExpMax= 5.48D+03 ExpMxC= 8.25D+02 IAcc=1 IRadAn=         1 AccDes= 0.00D+00
 Harris functional with IExCor=  402 and IRadAn=       1 diagonalized for initial guess.
 HarFok:  IExCor=  402 AccDes= 0.00D+00 IRadAn=         1 IDoV= 1 UseB2=F ITyADJ=14
 ICtDFT=  3500011 ScaDFX=  1.000000  1.000000  1.000000  1.000000
 FoFCou: FMM=F IPFlag=           0 FMFlag=      100000 FMFlg1=           0
         NFxFlg=           0 DoJE=T BraDBF=F KetDBF=T FulRan=T
         wScrn=  0.000000 ICntrl=     500 IOpCl=  0 I1Cent=   200000004 NGrid=           0
         NMat0=    1 NMatS0=      1 NMatT0=    0 NMatD0=    1 NMtDS0=    0 NMtDT0=    0
 Petite list used in FoFCou.
 Keep R1 ints in memory in symmetry-blocked form, NReq=1061604.
 Requested convergence on RMS density matrix=1.00D-08 within 128 cycles.
 Requested convergence on MAX density matrix=1.00D-06.
 Requested convergence on             energy=1.00D-06.
 No special actions if energy rises.
 Integral accuracy reduced to 1.0D-05 until final iterations.
 Initial convergence to 1.0D-05 achieved.  Increase integral accuracy.
 SCF Done:  E(RB3LYP) =  -114.500128908     A.U. after   10 cycles
            NFock= 10  Conv=0.19D-08     -V/T= 2.0094
 Calling FoFJK, ICntrl=      2127 FMM=F ISym2X=1 I1Cent= 0 IOpClX= 0 NMat=1 NMatS=1 NMatT=0.
 ***** Axes restored to original set *****
 -------------------------------------------------------------------
 Center     Atomic                   Forces (Hartrees/Bohr)
 Number     Number              X              Y              Z
 -------------------------------------------------------------------
      1        6          -0.000000049   -0.023153940    0.000000000
      2        1          -0.000165845   -0.000390046    0.000000000
      3        1           0.000165848   -0.000390071    0.000000000
      4        8           0.000000046    0.023934057    0.000000000
 -------------------------------------------------------------------
 Cartesian Forces:  Max     0.023934057 RMS     0.009614673

 GradGradGradGradGradGradGradGradGradGradGradGradGradGradGradGradGradGrad
 Berny optimization.
 FormGI is forming the generalized inverse of G from B-inverse, IUseBI=4.
 Internal  Forces:  Max     0.023934057 RMS     0.009049488
 Search for a local minimum.
 Step number   1 out of a maximum of   20 on scan point     6 out of     7
 All quantities printed in internal units (Hartrees-Bohrs-Radians)
 Mixed Optimization -- RFO/linear search
 Second derivative matrix not updated -- first step.
 The second derivative matrix:
                          R1        R2        R3        A1        A2
           R1           0.33412
           R2          -0.00295   0.33412
           R3           0.05310   0.05309   1.09659
           A1           0.01266   0.01266  -0.03114   0.14505
           A2          -0.00633  -0.00633   0.01557   0.00748   0.15626
           A3          -0.00633  -0.00633   0.01557   0.00747  -0.00374
           D1           0.00000   0.00000   0.00000   0.00000   0.00000
                          A3        D1
           A3           0.15627
           D1           0.00000   0.04383
 ITU=  0
     Eigenvalues ---    0.04383   0.13512   0.16000   0.33362   0.33707
     Eigenvalues --- 1000.000001000.00000
 RFO step:  Lambda=-2.19378223D-06 EMin= 4.38343062D-02
 Linear search not attempted -- first point.
 Iteration  1 RMS(Cart)=  0.00116714 RMS(Int)=  0.00000122
 Iteration  2 RMS(Cart)=  0.00000128 RMS(Int)=  0.00000000
 Iteration  3 RMS(Cart)=  0.00000000 RMS(Int)=  0.00000000
 Iteration  1 RMS(Cart)=  0.00000000 RMS(Int)=  0.00000000
 ClnCor:  largest displacement from symmetrization is 4.56D-15 for atom     1.
 Variable       Old X    -DE/DX   Delta X   Delta X   Delta X     New X
                                 (Linear)    (Quad)   (Total)
    R1        2.09596  -0.00035   0.00000  -0.00121  -0.00121   2.09476
    R2        2.09596  -0.00035   0.00000  -0.00121  -0.00121   2.09476
    R3        2.30834  -0.02393   0.00000   0.00000   0.00000   2.30834
    A1        2.01675   0.00034   0.00000   0.00268   0.00268   2.01942
    A2        2.13322  -0.00017   0.00000  -0.00134  -0.00134   2.13188
    A3        2.13322  -0.00017   0.00000  -0.00134  -0.00134   2.13188
    D1        3.14159   0.00000   0.00000   0.00000   0.00000   3.14159
         Item               Value     Threshold  Converged?
 Maximum Force            0.000348     0.000450     YES
 RMS     Force            0.000263     0.000300     YES
 Maximum Displacement     0.001507     0.001800     YES
 RMS     Displacement     0.001167     0.001200     YES
 Predicted change in Energy=-1.096891D-06
 Optimization completed.
    -- Stationary point found.
                           ----------------------------
                           !   Optimized Parameters   !
                           ! (Angstroms and Degrees)  !
 --------------------------                            --------------------------
 ! Name  Definition              Value          Derivative Info.                !
 --------------------------------------------------------------------------------
 ! R1    R(1,2)                  1.1091         -DE/DX =   -0.0003              !
 ! R2    R(1,3)                  1.1091         -DE/DX =   -0.0003              !
 ! R3    R(1,4)                  1.2215         -DE/DX =   -0.0239              !
 ! A1    A(2,1,3)              115.5511         -DE/DX =    0.0003              !
 ! A2    A(2,1,4)              122.2245         -DE/DX =   -0.0002              !
 ! A3    A(3,1,4)              122.2245         -DE/DX =   -0.0002              !
 ! D1    D(2,1,4,3)            180.0            -DE/DX =    0.0                 !
 --------------------------------------------------------------------------------
 Iteration  1 RMS(Cart)=  0.00309279 RMS(Int)=  0.00000000
 Iteration  2 RMS(Cart)=  0.00000000 RMS(Int)=  0.00000000
 Iteration  1 RMS(Cart)=  0.00000000 RMS(Int)=  0.00000000
 GradGradGradGradGradGradGradGradGradGradGradGradGradGradGradGradGradGrad

                          Input orientation:                          
 ---------------------------------------------------------------------
 Center     Atomic      Atomic             Coordinates (Angstroms)
 Number     Number       Type             X           Y           Z
 ---------------------------------------------------------------------
      1          6           0        0.000001    0.548798    0.000000
      2          1           0        0.938542    1.138632    0.000000
      3          1           0       -0.938537    1.138638    0.000000
      4          8           0       -0.000002   -0.677722    0.000000
 ---------------------------------------------------------------------
                    Distance matrix (angstroms):
                    1          2          3          4
     1  C    0.000000
     2  H    1.108497   0.000000
     3  H    1.108497   1.877080   0.000000
     4  O    1.226520   2.044508   2.044508   0.000000
 Stoichiometry    CH2O
 Framework group  CS[SG(CH2O)]
 Deg. of freedom     5
 Full point group                 CS      NOp   2
 Largest Abelian subgroup         CS      NOp   2
 Largest concise Abelian subgroup C1      NOp   1
                         Standard orientation:                         
 ---------------------------------------------------------------------
 Center     Atomic      Atomic             Coordinates (Angstroms)
 Number     Number       Type             X           Y           Z
 ---------------------------------------------------------------------
      1          6           0        0.000000   -0.539530    0.000000
      2          1           0       -0.938540   -1.129368    0.000000
      3          1           0        0.938540   -1.129368    0.000000
      4          8           0        0.000000    0.686990    0.000000
 ---------------------------------------------------------------------
 Rotational constants (GHZ):    284.6404687     37.5856417     33.2015138
 Standard basis: 6-31G(d) (6D, 7F)
 There are    26 symmetry adapted cartesian basis functions of A'  symmetry.
 There are     8 symmetry adapted cartesian basis functions of A"  symmetry.
 There are    26 symmetry adapted basis functions of A'  symmetry.
 There are     8 symmetry adapted basis functions of A"  symmetry.
    34 basis functions,    64 primitive gaussians,    34 cartesian basis functions
     8 alpha electrons        8 beta electrons
       nuclear repulsion energy        30.8611767044 Hartrees.
 NAtoms=    4 NActive=    4 NUniq=    4 SFac= 1.00D+00 NAtFMM=   60 NAOKFM=F Big=F
 Integral buffers will be    131072 words long.
 Raffenetti 2 integral format.
 Two-electron integral symmetry is turned on.
 One-electron integrals computed using PRISM.
 NBasis=    34 RedAO= T EigKep=  1.34D-02  NBF=    26     8
 NBsUse=    34 1.00D-06 EigRej= -1.00D+00 NBFU=    26     8
 Initial guess from the checkpoint file:  "HCOH-C-O.chk"
 B after Tr=     0.000000    0.000000    0.000000
         Rot=    1.000000    0.000000    0.000000    0.000000 Ang=   0.00 deg.
 Initial guess orbital symmetries:
       Occupied  (A') (A') (A') (A') (A') (A') (A") (A')
       Virtual   (A') (A') (A') (A') (A') (A') (A') (A') (A') (A')
                 (A') (A') (A') (A') (A') (A') (A') (A') (A') (A")
                 (A") (A") (A") (A") (A") (A")
 ExpMin= 1.61D-01 ExpMax= 5.48D+03 ExpMxC= 8.25D+02 IAcc=1 IRadAn=         1 AccDes= 0.00D+00
 Harris functional with IExCor=  402 and IRadAn=       1 diagonalized for initial guess.
 HarFok:  IExCor=  402 AccDes= 0.00D+00 IRadAn=         1 IDoV= 1 UseB2=F ITyADJ=14
 ICtDFT=  3500011 ScaDFX=  1.000000  1.000000  1.000000  1.000000
 FoFCou: FMM=F IPFlag=           0 FMFlag=      100000 FMFlg1=           0
         NFxFlg=           0 DoJE=T BraDBF=F KetDBF=T FulRan=T
         wScrn=  0.000000 ICntrl=     500 IOpCl=  0 I1Cent=   200000004 NGrid=           0
         NMat0=    1 NMatS0=      1 NMatT0=    0 NMatD0=    1 NMtDS0=    0 NMtDT0=    0
 Petite list used in FoFCou.
 Keep R1 ints in memory in symmetry-blocked form, NReq=1061604.
 Requested convergence on RMS density matrix=1.00D-08 within 128 cycles.
 Requested convergence on MAX density matrix=1.00D-06.
 Requested convergence on             energy=1.00D-06.
 No special actions if energy rises.
 Integral accuracy reduced to 1.0D-05 until final iterations.
 Initial convergence to 1.0D-05 achieved.  Increase integral accuracy.
 SCF Done:  E(RB3LYP) =  -114.499869992     A.U. after   10 cycles
            NFock= 10  Conv=0.19D-08     -V/T= 2.0095
 Calling FoFJK, ICntrl=      2127 FMM=F ISym2X=1 I1Cent= 0 IOpClX= 0 NMat=1 NMatS=1 NMatT=0.
 ***** Axes restored to original set *****
 -------------------------------------------------------------------
 Center     Atomic                   Forces (Hartrees/Bohr)
 Number     Number              X              Y              Z
 -------------------------------------------------------------------
      1        6          -0.000000068   -0.030520444    0.000000000
      2        1          -0.000159669   -0.000385765    0.000000000
      3        1           0.000159673   -0.000385791    0.000000000
      4        8           0.000000065    0.031292000    0.000000000
 -------------------------------------------------------------------
 Cartesian Forces:  Max     0.031292000 RMS     0.012619546

 GradGradGradGradGradGradGradGradGradGradGradGradGradGradGradGradGradGrad
 Berny optimization.
 FormGI is forming the generalized inverse of G from B-inverse, IUseBI=4.
 Internal  Forces:  Max     0.031292000 RMS     0.011829696
 Search for a local minimum.
 Step number   1 out of a maximum of   20 on scan point     7 out of     7
 All quantities printed in internal units (Hartrees-Bohrs-Radians)
 Mixed Optimization -- RFO/linear search
 Second derivative matrix not updated -- first step.
 The second derivative matrix:
                          R1        R2        R3        A1        A2
           R1           0.33412
           R2          -0.00295   0.33412
           R3           0.05310   0.05309   1.09659
           A1           0.01266   0.01266  -0.03114   0.14505
           A2          -0.00633  -0.00633   0.01557   0.00748   0.15626
           A3          -0.00633  -0.00633   0.01557   0.00747  -0.00374
           D1           0.00000   0.00000   0.00000   0.00000   0.00000
                          A3        D1
           A3           0.15627
           D1           0.00000   0.04383
 ITU=  0
     Eigenvalues ---    0.04383   0.13512   0.16000   0.33362   0.33707
     Eigenvalues --- 1000.000001000.00000
 RFO step:  Lambda=-2.15628728D-06 EMin= 4.38343062D-02
 Linear search not attempted -- first point.
 Iteration  1 RMS(Cart)=  0.00116222 RMS(Int)=  0.00000121
 Iteration  2 RMS(Cart)=  0.00000126 RMS(Int)=  0.00000000
 Iteration  3 RMS(Cart)=  0.00000000 RMS(Int)=  0.00000000
 Iteration  1 RMS(Cart)=  0.00000000 RMS(Int)=  0.00000000
 ClnCor:  largest displacement from symmetrization is 8.20D-14 for atom     1.
 Variable       Old X    -DE/DX   Delta X   Delta X   Delta X     New X
                                 (Linear)    (Quad)   (Total)
    R1        2.09476  -0.00034   0.00000  -0.00118  -0.00118   2.09357
    R2        2.09476  -0.00034   0.00000  -0.00118  -0.00118   2.09357
    R3        2.31779  -0.03129   0.00000   0.00000   0.00000   2.31779
    A1        2.01942   0.00034   0.00000   0.00267   0.00267   2.02209
    A2        2.13188  -0.00017   0.00000  -0.00134  -0.00134   2.13055
    A3        2.13188  -0.00017   0.00000  -0.00134  -0.00134   2.13055
    D1        3.14159   0.00000   0.00000   0.00000   0.00000   3.14159
         Item               Value     Threshold  Converged?
 Maximum Force            0.000340     0.000450     YES
 RMS     Force            0.000259     0.000300     YES
 Maximum Displacement     0.001498     0.001800     YES
 RMS     Displacement     0.001162     0.001200     YES
 Predicted change in Energy=-1.078144D-06
 Optimization completed.
    -- Stationary point found.
                           ----------------------------
                           !   Optimized Parameters   !
                           ! (Angstroms and Degrees)  !
 --------------------------                            --------------------------
 ! Name  Definition              Value          Derivative Info.                !
 --------------------------------------------------------------------------------
 ! R1    R(1,2)                  1.1085         -DE/DX =   -0.0003              !
 ! R2    R(1,3)                  1.1085         -DE/DX =   -0.0003              !
 ! R3    R(1,4)                  1.2265         -DE/DX =   -0.0313              !
 ! A1    A(2,1,3)              115.7043         -DE/DX =    0.0003              !
 ! A2    A(2,1,4)              122.1478         -DE/DX =   -0.0002              !
 ! A3    A(3,1,4)              122.1478         -DE/DX =   -0.0002              !
 ! D1    D(2,1,4,3)            180.0            -DE/DX =    0.0                 !
 --------------------------------------------------------------------------------
 GradGradGradGradGradGradGradGradGradGradGradGradGradGradGradGradGradGrad

 Summary of Optimized Potential Surface Scan
                           1         2         3         4         5
     Eigenvalues --  -114.50031-114.50043-114.50047-114.50043-114.50032
           R1           1.11182   1.11180   1.11112   1.11045   1.10979
           R2           1.11182   1.11180   1.11112   1.11045   1.10979
           R3           1.19652   1.20152   1.20652   1.21152   1.21652
           A1         114.93139 114.93422 115.08974 115.24379 115.39754
           A2         122.53428 122.53289 122.45512 122.37810 122.30123
           A3         122.53433 122.53288 122.45514 122.37811 122.30124
           D1         180.00000 180.00000 180.00000 180.00000 180.00000
                           6         7
     Eigenvalues --  -114.50013-114.49987
           R1           1.10913   1.10850
           R2           1.10913   1.10850
           R3           1.22152   1.22652
           A1         115.55105 115.70432
           A2         122.22447 122.14783
           A3         122.22448 122.14784
           D1         180.00000 180.00000
                          Input orientation:                          
 ---------------------------------------------------------------------
 Center     Atomic      Atomic             Coordinates (Angstroms)
 Number     Number       Type             X           Y           Z
 ---------------------------------------------------------------------
      1          6           0        0.000001    0.548798    0.000000
      2          1           0        0.938542    1.138632    0.000000
      3          1           0       -0.938537    1.138638    0.000000
      4          8           0       -0.000002   -0.677722    0.000000
 ---------------------------------------------------------------------
                    Distance matrix (angstroms):
                    1          2          3          4
     1  C    0.000000
     2  H    1.108497   0.000000
     3  H    1.108497   1.877080   0.000000
     4  O    1.226520   2.044508   2.044508   0.000000
 Stoichiometry    CH2O
 Framework group  CS[SG(CH2O)]
 Deg. of freedom     5
 Full point group                 CS      NOp   2
 Largest Abelian subgroup         CS      NOp   2
 Largest concise Abelian subgroup C1      NOp   1
                         Standard orientation:                         
 ---------------------------------------------------------------------
 Center     Atomic      Atomic             Coordinates (Angstroms)
 Number     Number       Type             X           Y           Z
 ---------------------------------------------------------------------
      1          6           0        0.000000   -0.539530    0.000000
      2          1           0       -0.938540   -1.129368    0.000000
      3          1           0        0.938540   -1.129368    0.000000
      4          8           0        0.000000    0.686990    0.000000
 ---------------------------------------------------------------------
 Rotational constants (GHZ):    284.6404687     37.5856417     33.2015138

 **********************************************************************

            Population analysis using the SCF density.

 **********************************************************************

 Orbital symmetries:
       Occupied  (A') (A') (A') (A') (A') (A') (A") (A')
       Virtual   (A") (A') (A') (A') (A") (A') (A') (A') (A') (A')
                 (A') (A") (A') (A') (A") (A") (A') (A') (A") (A')
                 (A') (A") (A') (A') (A') (A')
 The electronic state is 1-A'.
 Alpha  occ. eigenvalues --  -19.17021 -10.29109  -1.04968  -0.64046  -0.49330
 Alpha  occ. eigenvalues --   -0.44634  -0.39257  -0.26916
 Alpha virt. eigenvalues --   -0.04749   0.10048   0.17969   0.21575   0.50811
 Alpha virt. eigenvalues --    0.61356   0.62715   0.67619   0.81409   0.84100
 Alpha virt. eigenvalues --    0.89129   0.95991   1.05843   1.37081   1.50041
 Alpha virt. eigenvalues --    1.51214   1.69053   1.84121   1.92416   2.11671
 Alpha virt. eigenvalues --    2.24907   2.52086   2.63715   2.88865   3.66795
 Alpha virt. eigenvalues --    4.05465
          Condensed to atoms (all electrons):
               1          2          3          4
     1  C    4.718724   0.330983   0.330983   0.541649
     2  H    0.330983   0.686595  -0.091869  -0.053079
     3  H    0.330983  -0.091869   0.686595  -0.053079
     4  O    0.541649  -0.053079  -0.053079   7.896913
 Mulliken charges:
               1
     1  C    0.077662
     2  H    0.127371
     3  H    0.127371
     4  O   -0.332403
 Sum of Mulliken charges =   0.00000
 Mulliken charges with hydrogens summed into heavy atoms:
               1
     1  C    0.332403
     4  O   -0.332403
 Electronic spatial extent (au):  <R**2>=             60.9967
 Charge=              0.0000 electrons
 Dipole moment (field-independent basis, Debye):
    X=              0.0000    Y=             -2.2698    Z=              0.0000  Tot=              2.2698
 Quadrupole moment (field-independent basis, Debye-Ang):
   XX=            -11.4780   YY=            -11.8760   ZZ=            -11.4499
   XY=              0.0000   XZ=              0.0000   YZ=              0.0000
 Traceless Quadrupole moment (field-independent basis, Debye-Ang):
   XX=              0.1233   YY=             -0.2747   ZZ=              0.1514
   XY=              0.0000   XZ=              0.0000   YZ=              0.0000
 Octapole moment (field-independent basis, Debye-Ang**2):
  XXX=              0.0000  YYY=              1.1170  ZZZ=              0.0000  XYY=              0.0000
  XXY=             -0.0486  XXZ=              0.0000  XZZ=              0.0000  YZZ=              0.9047
  YYZ=              0.0000  XYZ=              0.0000
 Hexadecapole moment (field-independent basis, Debye-Ang**3):
 XXXX=            -17.8235 YYYY=            -45.0541 ZZZZ=             -9.2708 XXXY=              0.0000
 XXXZ=              0.0000 YYYX=              0.0000 YYYZ=              0.0000 ZZZX=              0.0000
 ZZZY=              0.0000 XXYY=            -10.1825 XXZZ=             -4.7323 YYZZ=             -9.0409
 XXYZ=              0.0000 YYXZ=              0.0000 ZZXY=              0.0000
 N-N= 3.086117670437D+01 E-N=-3.300974825134D+02  KE= 1.134170008455D+02
 Symmetry A'   KE= 1.097967486960D+02
 Symmetry A"   KE= 3.620252149461D+00
 1\1\GINC-NODE377\Scan\RB3LYP\6-31G(d)\C1H2O1\ROOT\17-Jun-2020\0\\# opt
 =modredundant b3lyp/6-31g(d) geom=connectivity\\Title Card Required\\0
 ,1\C,0.0000007771,0.5487975127,0.\H,0.93854216,1.1386324732,0.\H,-0.93
 85374898,1.1386375014,0.\O,-0.0000023808,-0.6777224873,0.\\Version=ES6
 4L-G09RevD.01\State=1-A'\HF=-114.5003141,-114.5004326,-114.5004714,-11
 4.5004321,-114.5003171,-114.5001289,-114.49987\RMSD=9.429e-09,1.872e-0
 9,1.954e-09,1.940e-09,1.917e-09,1.889e-09,1.856e-09\PG=CS [SG(C1H2O1)]
 \\@


 There ain't no surer way to find out whether you
 like people or hate them than to travel with them.
                                     -- Mark Twain
 Job cpu time:       0 days  0 hours  0 minutes 40.3 seconds.
 File lengths (MBytes):  RWF=      5 Int=      0 D2E=      0 Chk=      1 Scr=      1
 Normal termination of Gaussian 09 at Wed Jun 17 13:50:32 2020.
